 Gaussian 16, Revision C.01,
 Gaussian 16:  ES64L-G16RevC.01  3-Jul-2019

 ----------------------------------------------------------------------
 #b3lyp/svp scf=(tight,noincore,xqc) Test #IOP(5/87=12) Density=Current
  Pop=(MK,readradii) iop(6/33=2) iop(6/42=6)
 ----------------------------------------------------------------------

 --------------
 loop1.cluster1
 --------------
 Symbolic Z-matrix:
 Charge =  0 Multiplicity = 1

                         Standard orientation:
 ---------------------------------------------------------------------
 Center     Atomic      Atomic             Coordinates (Angstroms)
 Number     Number       Type             X           Y           Z
 ---------------------------------------------------------------------
      1          6           0       -0.059848    3.519304   -4.767102
      2          6           0        0.471002    3.008285   -3.468645
      3          8           0       -0.235725    3.040242   -2.481005
      4          1           0       -1.112727    3.850406   -4.648398
      5          1           0        0.559257    4.376437   -5.103297
      6          1           0       -0.017814    2.709945   -5.526316
      7          7           0        1.720061    2.488786   -3.408148
      8          6           0        2.306042    1.943363   -2.186009
      9          6           0        2.800028    3.107107   -1.326860
     10          8           0        3.942529    3.524651   -1.465931
     11          6           0        3.407564    0.986168   -2.645914
     12          6           0        4.221655    0.217659   -1.671810
     13          8           0        5.259157   -0.254454   -2.093192
     14          8           0        3.812266   -0.131331   -0.436656
     15          1           0        2.262203    2.444078   -4.287644
     16          1           0        1.566098    1.317103   -1.647174
     17          1           0        4.131825    1.576420   -3.241396
     18          1           0        2.964746    0.223399   -3.327121
     19          7           0        1.914520    3.779113   -0.534565
     20          6           0        2.202487    5.053608    0.115909
     21          6           0        3.033991    4.961286    1.388151
     22          8           0        3.507787    5.991046    1.848300
     23          6           0        0.886298    5.811752    0.352417
     24          6           0        0.253626    6.193127   -0.997623
     25          6           0       -0.831809    7.249618   -0.826331
     26          6           0       -1.468454    7.599521   -2.181105
     27          7           0       -1.968231    8.972785   -2.181474
     28          1           0        0.947351    3.449352   -0.513950
     29          1           0        2.811941    5.664790   -0.587424
     30          1           0        1.110410    6.738916    0.915968
     31          1           0        0.172348    5.196994    0.949850
     32          1           0       -0.130714    5.299278   -1.524600
     33          1           0        1.035855    6.659260   -1.640587
     34          1           0       -0.315923    8.142069   -0.410985
     35          1           0       -1.622095    6.934535   -0.109338
     36          1           0       -2.285268    6.873425   -2.398176
     37          1           0       -0.720905    7.520580   -3.001249
     38          1           0       -2.453756    9.161711   -3.087313
     39          1           0       -2.621801    9.138946   -1.383874
     40          1           0       -1.151770    9.625750   -2.108459
     41          7           0        3.322904    3.761410    1.955963
     42          6           0        4.392489    3.586570    2.945309
     43          6           0        5.587320    2.906848    2.276118
     44          8           0        6.680821    2.984327    2.821513
     45          6           0        3.921537    2.815209    4.205927
     46          6           0        3.004501    1.696750    3.829852
     47          8           0        1.836807    1.712244    4.179974
     48          8           0        3.457553    0.744370    3.009973
     49          1           0        2.865367    2.924081    1.575552
     50          1           0        4.781278    4.574885    3.283690
     51          1           0        3.365721    3.498848    4.877968
     52          1           0        4.800968    2.420055    4.764657
     53          7           0        5.477999    2.296863    1.054307
     54          6           0        6.625123    1.808838    0.315454
     55          6           0        7.084540    0.414316    0.706505
     56          8           0        8.118251   -0.008419    0.213828
     57          1           0        4.572763    2.247034    0.581098
     58          1           0        7.449331    2.547247    0.405590
     59          1           0        6.363360    1.783099   -0.763513
     60          7           0        6.362542   -0.371839    1.560783
     61          6           0        6.814154   -1.702753    1.995709
     62          6           0        6.968652   -2.743668    0.872509
     63          8           0        7.506030   -3.813220    1.130243
     64          6           0        5.905189   -2.223905    3.141940
     65          6           0        4.429460   -2.273815    2.843582
     66          8           0        4.033975   -2.403374    1.704792
     67          8           0        3.540724   -2.004901    3.818682
     68          1           0        5.488098   -0.000909    1.946185
     69          1           0        7.826922   -1.572852    2.431883
     70          1           0        6.019176   -1.525467    3.997835
     71          1           0        6.238905   -3.222684    3.491360
     72          7           0        6.515354   -2.503346   -0.386057
     73          6           0        6.672144   -3.407626   -1.519985
     74          6           0        5.357144   -4.038435   -1.946163
     75          8           0        5.330603   -4.723567   -2.954700
     76          1           0        5.998984   -1.643940   -0.537847
     77          1           0        7.391850   -4.226447   -1.308284
     78          1           0        7.077580   -2.816685   -2.372415
     79          7           0        4.236701   -3.881867   -1.184348
     80          6           0        2.941191   -4.470747   -1.510006
     81          6           0        1.869444   -3.393760   -1.553108
     82          8           0        2.074327   -2.292905   -1.071987
     83          6           0        2.560798   -5.618301   -0.514953
     84          6           0        3.447748   -6.844883   -0.706570
     85          8           0        2.579874   -5.244013    0.837147
     86          1           0        4.304014   -3.332656   -0.335469
     87          1           0        2.975576   -4.912166   -2.526027
     88          1           0        1.520537   -5.942742   -0.731049
     89          1           0        3.363423   -4.674424    1.020835
     90          1           0        4.516810   -6.587551   -0.560761
     91          1           0        3.164445   -7.633707    0.023625
     92          1           0        3.296944   -7.246532   -1.730808
     93          7           0        0.690957   -3.673963   -2.176651
     94          6           0       -0.417170   -2.731115   -2.282379
     95          6           0       -1.623530   -3.367923   -1.616314
     96          8           0       -1.923741   -4.524173   -1.863322
     97          6           0       -0.722837   -2.388387   -3.770014
     98          6           0        0.471719   -1.627344   -4.403268
     99          6           0       -1.995628   -1.512330   -3.880326
    100          6           0        0.327200   -1.423770   -5.913721
    101          1           0        0.574240   -4.601347   -2.605575
    102          1           0       -0.185066   -1.768160   -1.781303
    103          1           0       -0.898734   -3.344436   -4.308794
    104          1           0        1.414759   -2.189185   -4.240208
    105          1           0        0.577641   -0.633754   -3.910028
    106          1           0       -1.827530   -0.523104   -3.405758
    107          1           0       -2.296362   -1.352173   -4.931985
    108          1           0       -2.867405   -1.993009   -3.399590
    109          1           0        0.302485   -2.409844   -6.423350
    110          1           0       -0.585166   -0.854381   -6.179211
    111          1           0        1.194689   -0.844982   -6.292495
    112          7           0       -2.404134   -2.602446   -0.813049
    113          6           0       -3.594438   -3.080138   -0.133621
    114          6           0       -4.849257   -2.542714   -0.794436
    115          8           0       -4.782791   -1.750543   -1.716631
    116          6           0       -3.538057   -2.630610    1.355682
    117          6           0       -2.383044   -3.302769    2.096030
    118          8           0       -3.452972   -1.230361    1.463052
    119          1           0       -2.162418   -1.625911   -0.707360
    120          1           0       -3.664255   -4.185317   -0.198433
    121          1           0       -4.464773   -2.925068    1.887099
    122          1           0       -2.503668   -0.959615    1.541334
    123          1           0       -2.327448   -2.906650    3.132708
    124          1           0       -2.546860   -4.397142    2.124955
    125          1           0       -1.428297   -3.085961    1.577137
    126          7           0       -6.051707   -2.975213   -0.331911
    127          6           0       -7.342430   -2.453858   -0.779380
    128          6           0       -7.409453   -0.972268   -0.463662
    129          8           0       -7.826428   -0.181843   -1.302058
    130          6           0       -8.476563   -3.225799   -0.046631
    131          6           0       -8.489502   -4.706751   -0.497254
    132          8           0       -8.319232   -3.096439    1.352227
    133          1           0       -6.042128   -3.675482    0.419862
    134          1           0       -7.482153   -2.603014   -1.873392
    135          1           0       -9.460436   -2.791193   -0.326689
    136          1           0       -8.488398   -3.966563    1.798670
    137          1           0       -8.661627   -4.773167   -1.592061
    138          1           0       -7.532842   -5.219066   -0.261678
    139          1           0       -9.305638   -5.257239    0.015641
    140          7           0       -6.950987   -0.529483    0.734829
    141          6           0       -6.906890    0.867669    1.133190
    142          6           0       -6.025345    1.697539    0.196941
    143          8           0       -6.425288    2.781911   -0.196879
    144          6           0       -6.457362    0.971188    2.611625
    145          6           0       -7.426373    0.175285    3.527161
    146          6           0       -7.377676    0.646596    4.980067
    147          6           0       -8.320552   -0.182060    5.869155
    148          7           0       -8.269362    0.288307    7.253002
    149          1           0       -6.587531   -1.234188    1.393336
    150          1           0       -7.932680    1.298193    1.103629
    151          1           0       -6.485639    2.046054    2.886363
    152          1           0       -5.415543    0.602482    2.765162
    153          1           0       -7.189130   -0.911596    3.476321
    154          1           0       -8.472422    0.315247    3.179785
    155          1           0       -7.698376    1.711498    5.011772
    156          1           0       -6.340837    0.564901    5.366284
    157          1           0       -8.014130   -1.251014    5.834963
    158          1           0       -9.368841   -0.111727    5.496607
    159          1           0       -8.845554   -0.342565    7.855644
    160          1           0       -7.282563    0.275204    7.599098
    161          1           0       -8.650930    1.260325    7.314739
    162          7           0       -4.817667    1.224627   -0.214353
    163          6           0       -3.932677    1.947961   -1.133438
    164          6           0       -4.536508    2.104898   -2.519333
    165          8           0       -4.258231    3.107149   -3.164523
    166          6           0       -2.564176    1.248531   -1.185076
    167          6           0       -1.820232    1.516769    0.143314
    168          6           0       -0.520570    0.798581    0.326688
    169          8           0       -0.462853   -0.416906    0.328311
    170          8           0        0.573047    1.505045    0.629118
    171          1           0       -4.526603    0.303767    0.121706
    172          1           0       -3.753265    2.974091   -0.745493
    173          1           0       -1.957641    1.603698   -2.029510
    174          1           0       -2.753131    0.189216   -1.383067
    175          1           0       -2.464457    1.257457    1.003330
    176          1           0       -1.607653    2.607828    0.200894
    177          7           0       -5.433382    1.203697   -3.008950
    178          6           0       -6.151142    1.402685   -4.252232
    179          1           0       -7.230098    1.509015   -4.012338
    180          1           0       -5.829638    2.316864   -4.794290
    181          1           0       -6.018677    0.526531   -4.920135
    182          1           0       -5.661197    0.369352   -2.458992
    183         20           0        2.398017   -0.203073    1.299194
    184          8           0        0.922054   -2.970456    2.394360
    185          1           0        1.374245   -3.788574    2.097908
    186          1           0        0.434556   -3.267400    3.201125
    187          8           0        0.224134   -0.482804    3.387693
    188          1           0       -0.718429   -0.547090    3.678624
    189          1           0        0.742365   -0.470231    4.230431
 ---------------------------------------------------------------------

 SCF Done:  E(RB3LYP) =  -5563.94900346     A.U. after   33 cycles
 SCF Done:  E(RB3LYP) =  -5565.01953856     a.u. after   25 cycles

 The electronic state is 1-A.
 Alpha  occ. eigenvalues -- -145.27151 -19.19245 -19.15580 -19.12114 -19.11770
 Alpha  occ. eigenvalues --  -19.09359 -19.09024 -19.08434 -19.07774 -19.07542
 Alpha  occ. eigenvalues --  -19.06579 -19.06576 -19.06441 -19.05310 -19.05165
 Alpha  occ. eigenvalues --  -19.04916 -19.03149 -19.01798 -19.01689 -19.01144
 Alpha  occ. eigenvalues --  -18.99936 -18.99926 -18.99882 -18.99621 -18.99463
 Alpha  occ. eigenvalues --  -18.99433 -18.98496 -15.33091 -14.59140 -14.58148
 Alpha  occ. eigenvalues --  -14.38384 -14.37943 -14.34586 -14.34340 -14.33347
 Alpha  occ. eigenvalues --  -14.32249 -14.31678 -14.31480 -14.30514 -14.27698
 Alpha  occ. eigenvalues --  -14.27279 -14.25330 -14.24568 -12.46705 -12.46656
 Alpha  occ. eigenvalues --  -12.46607 -10.36095 -10.34450 -10.30556 -10.30217
 Alpha  occ. eigenvalues --  -10.29483 -10.29379 -10.28302 -10.27636 -10.27022
 Alpha  occ. eigenvalues --  -10.26848 -10.26558 -10.26279 -10.26013 -10.25881
 Alpha  occ. eigenvalues --  -10.25485 -10.24999 -10.24687 -10.24098 -10.23998
 Alpha  occ. eigenvalues --  -10.23679 -10.23513 -10.23508 -10.22353 -10.21828
 Alpha  occ. eigenvalues --  -10.21457 -10.20693 -10.20622 -10.20250 -10.20127
 Alpha  occ. eigenvalues --  -10.20094 -10.19786 -10.19751 -10.19664 -10.19557
 Alpha  occ. eigenvalues --  -10.19438 -10.18694 -10.18559 -10.18540 -10.18184
 Alpha  occ. eigenvalues --  -10.18124 -10.17558 -10.17187 -10.17003 -10.16348
 Alpha  occ. eigenvalues --  -10.15861 -10.15710 -10.15327 -10.14935 -10.14679
 Alpha  occ. eigenvalues --  -10.14298 -10.14096 -10.12976 -10.12186 -10.10920
 Alpha  occ. eigenvalues --   -1.70509  -1.12677  -1.12302  -1.06886  -1.05526
 Alpha  occ. eigenvalues --   -1.04549  -1.03186  -1.02603  -1.02384  -1.00791
 Alpha  occ. eigenvalues --   -0.99553  -0.99542  -0.99167  -0.98511  -0.98314
 Alpha  occ. eigenvalues --   -0.98224  -0.98172  -0.97801  -0.96306  -0.94995
 Alpha  occ. eigenvalues --   -0.94930  -0.94729  -0.94543  -0.93997  -0.93731
 Alpha  occ. eigenvalues --   -0.93642  -0.92945  -0.92347  -0.92228  -0.91129
 Alpha  occ. eigenvalues --   -0.90534  -0.90120  -0.90004  -0.89216  -0.88685
 Alpha  occ. eigenvalues --   -0.87450  -0.87374  -0.87157  -0.86318  -0.86137
 Alpha  occ. eigenvalues --   -0.83949  -0.82899  -0.82782  -0.82708  -0.82347
 Alpha  occ. eigenvalues --   -0.81278  -0.81263  -0.80765  -0.80229  -0.79664
 Alpha  occ. eigenvalues --   -0.78165  -0.77925  -0.77070  -0.76514  -0.75736
 Alpha  occ. eigenvalues --   -0.74426  -0.74266  -0.72451  -0.72225  -0.72140
 Alpha  occ. eigenvalues --   -0.71729  -0.71615  -0.71133  -0.70936  -0.70428
 Alpha  occ. eigenvalues --   -0.70334  -0.69866  -0.68316  -0.68054  -0.67102
 Alpha  occ. eigenvalues --   -0.66313  -0.66066  -0.65650  -0.65183  -0.64577
 Alpha  occ. eigenvalues --   -0.63868  -0.62894  -0.62789  -0.62720  -0.62003
 Alpha  occ. eigenvalues --   -0.61640  -0.61434  -0.61181  -0.60030  -0.59951
 Alpha  occ. eigenvalues --   -0.59891  -0.58959  -0.58238  -0.57493  -0.57431
 Alpha  occ. eigenvalues --   -0.57183  -0.56832  -0.55923  -0.55567  -0.55476
 Alpha  occ. eigenvalues --   -0.55161  -0.54701  -0.54359  -0.54298  -0.53571
 Alpha  occ. eigenvalues --   -0.53383  -0.53335  -0.52881  -0.51967  -0.51558
 Alpha  occ. eigenvalues --   -0.51092  -0.50986  -0.50705  -0.50589  -0.50519
 Alpha  occ. eigenvalues --   -0.50194  -0.49825  -0.49427  -0.49237  -0.48971
 Alpha  occ. eigenvalues --   -0.48876  -0.48690  -0.48546  -0.47964  -0.47873
 Alpha  occ. eigenvalues --   -0.47632  -0.47493  -0.46726  -0.46678  -0.46603
 Alpha  occ. eigenvalues --   -0.46320  -0.46168  -0.46105  -0.45927  -0.45742
 Alpha  occ. eigenvalues --   -0.45487  -0.45004  -0.44951  -0.44573  -0.44451
 Alpha  occ. eigenvalues --   -0.44425  -0.44246  -0.44199  -0.44080  -0.43862
 Alpha  occ. eigenvalues --   -0.43606  -0.43441  -0.43332  -0.43300  -0.43095
 Alpha  occ. eigenvalues --   -0.43015  -0.42865  -0.42783  -0.42333  -0.41860
 Alpha  occ. eigenvalues --   -0.41780  -0.41659  -0.41361  -0.41167  -0.40938
 Alpha  occ. eigenvalues --   -0.40857  -0.40748  -0.40566  -0.40306  -0.40143
 Alpha  occ. eigenvalues --   -0.40062  -0.39853  -0.39697  -0.39574  -0.39452
 Alpha  occ. eigenvalues --   -0.39365  -0.39119  -0.38837  -0.38817  -0.38478
 Alpha  occ. eigenvalues --   -0.38368  -0.38248  -0.38161  -0.37873  -0.37856
 Alpha  occ. eigenvalues --   -0.37665  -0.37598  -0.37413  -0.37347  -0.37280
 Alpha  occ. eigenvalues --   -0.37086  -0.36876  -0.36724  -0.36622  -0.36473
 Alpha  occ. eigenvalues --   -0.36408  -0.36341  -0.36218  -0.36107  -0.36041
 Alpha  occ. eigenvalues --   -0.35933  -0.35773  -0.35369  -0.35154  -0.35005
 Alpha  occ. eigenvalues --   -0.34756  -0.34565  -0.34401  -0.34332  -0.34239
 Alpha  occ. eigenvalues --   -0.34010  -0.33766  -0.33619  -0.33469  -0.33375
 Alpha  occ. eigenvalues --   -0.33063  -0.32945  -0.32935  -0.32829  -0.32628
 Alpha  occ. eigenvalues --   -0.32499  -0.32302  -0.32173  -0.31955  -0.31682
 Alpha  occ. eigenvalues --   -0.31384  -0.30948  -0.30838  -0.30576  -0.30521
 Alpha  occ. eigenvalues --   -0.30363  -0.30313  -0.30207  -0.30138  -0.30076
 Alpha  occ. eigenvalues --   -0.29732  -0.29597  -0.28990  -0.28798  -0.28524
 Alpha  occ. eigenvalues --   -0.28094  -0.27772  -0.27540  -0.27429  -0.27189
 Alpha  occ. eigenvalues --   -0.26900  -0.26715  -0.26194  -0.26118  -0.25595
 Alpha  occ. eigenvalues --   -0.25011  -0.24907  -0.24505  -0.24322  -0.24128
 Alpha  occ. eigenvalues --   -0.23793  -0.23224  -0.22980  -0.22861  -0.22342
 Alpha  occ. eigenvalues --   -0.22301  -0.22066  -0.21654  -0.21404  -0.20867
 Alpha  occ. eigenvalues --   -0.20631  -0.20503  -0.19589  -0.19328  -0.19128
 Alpha  occ. eigenvalues --   -0.18731  -0.18363  -0.18203  -0.17895  -0.17447
 Alpha  occ. eigenvalues --   -0.17160  -0.16992  -0.16826  -0.15628  -0.15396
 Alpha  occ. eigenvalues --   -0.15141  -0.14994  -0.14455  -0.14398  -0.12739
 Alpha virt. eigenvalues --   -0.11924  -0.11362  -0.05962  -0.05621  -0.05606
 Alpha virt. eigenvalues --   -0.05162  -0.03466  -0.01511  -0.01251  -0.00431
 Alpha virt. eigenvalues --   -0.00153   0.00646   0.00672   0.01317   0.01410

 Mulliken charges:
               1
     1  C    0.024253
     2  C    0.051713
     3  O   -0.291147
     4  H    0.039681
     5  H    0.019053
     6  H    0.046003
     7  N   -0.153938
     8  C    0.107035
     9  C    0.069221
    10  O   -0.273485
    11  C    0.046227
    12  C    0.189192
    13  O   -0.320503
    14  O   -0.611207
    15  H    0.126236
    16  H    0.047325
    17  H    0.005629
    18  H    0.029790
    19  N   -0.168761
    20  C    0.128682
    21  C    0.102155
    22  O   -0.295139
    23  C    0.001272
    24  C   -0.030795
    25  C   -0.050033
    26  C    0.002045
    27  N    0.020540
    28  H    0.160922
    29  H    0.016963
    30  H    0.011170
    31  H    0.035433
    32  H    0.055308
    33  H   -0.000175
    34  H    0.010906
    35  H    0.045409
    36  H    0.116921
    37  H    0.074225
    38  H    0.210878
    39  H    0.214613
    40  H    0.213438
    41  N   -0.167183
    42  C    0.070730
    43  C    0.100650
    44  O   -0.285770
    45  C    0.155939
    46  C    0.097726
    47  O   -0.311110
    48  O   -0.605437
    49  H    0.158189
    50  H    0.036001
    51  H   -0.020519
    52  H    0.030818
    53  N   -0.197276
    54  C    0.209717
    55  C    0.061807
    56  O   -0.298582
    57  H    0.109101
    58  H    0.020389
    59  H    0.043777
    60  N   -0.190597
    61  C    0.140791
    62  C    0.079421
    63  O   -0.308892
    64  C    0.048495
    65  C    0.108234
    66  O   -0.355885
    67  O   -0.395089
    68  H    0.149415
    69  H    0.013343
    70  H    0.020708
    71  H    0.024596
    72  N   -0.194840
    73  C    0.229635
    74  C    0.034492
    75  O   -0.305469
    76  H    0.168606
    77  H    0.038621
    78  H    0.038043
    79  N   -0.178537
    80  C    0.091093
    81  C    0.126794
    82  O   -0.249468
    83  C    0.124268
    84  C    0.059845
    85  O   -0.330770
    86  H    0.160590
    87  H    0.006632
    88  H   -0.026882
    89  H    0.190928
    90  H    0.033547
    91  H    0.004196
    92  H   -0.007989
    93  N   -0.170328
    94  C    0.153373
    95  C    0.090489
    96  O   -0.289063
    97  C   -0.091587
    98  C   -0.001541
    99  C    0.011461
   100  C    0.013045
   101  H    0.125077
   102  H    0.033995
   103  H   -0.016407
   104  H    0.028357
   105  H    0.006096
   106  H    0.006233
   107  H    0.000267
   108  H    0.033655
   109  H    0.010197
   110  H    0.000386
   111  H    0.006428
   112  N   -0.160130
   113  C    0.136118
   114  C    0.103997
   115  O   -0.243970
   116  C    0.085085
   117  C    0.017260
   118  O   -0.350019
   119  H    0.137538
   120  H    0.026593
   121  H   -0.046730
   122  H    0.211331
   123  H   -0.000763
   124  H    0.004257
   125  H    0.071518
   126  N   -0.181124
   127  C    0.167892
   128  C    0.081076
   129  O   -0.251689
   130  C    0.055286
   131  C    0.021965
   132  O   -0.323326
   133  H    0.115715
   134  H    0.030232
   135  H    0.018452
   136  H    0.181701
   137  H    0.042483
   138  H    0.018780
   139  H    0.024985
   140  N   -0.168027
   141  C    0.134478
   142  C    0.085677
   143  O   -0.261798
   144  C   -0.000144
   145  C   -0.008224
   146  C   -0.046356
   147  C    0.013540
   148  N    0.095872
   149  H    0.133942
   150  H    0.008017
   151  H    0.021180
   152  H    0.036088
   153  H    0.018342
   154  H    0.019063
   155  H    0.028534
   156  H    0.034562
   157  H    0.066887
   158  H    0.067897
   159  H    0.137045
   160  H    0.150046
   161  H    0.141957
   162  N   -0.193943
   163  C    0.148278
   164  C    0.087262
   165  O   -0.305511
   166  C   -0.049472
   167  C    0.078321
   168  C    0.177993
   169  O   -0.330136
   170  O   -0.515527
   171  H    0.139212
   172  H   -0.012537
   173  H    0.055680
   174  H    0.008836
   175  H   -0.018451
   176  H   -0.012643
   177  N   -0.183989
   178  C    0.105704
   179  H    0.023749
   180  H    0.032750
   181  H    0.016967
   182  H    0.145544
   183  Ca   1.295279
   184  O   -0.260330
   185  H    0.147391
   186  H    0.135778
   187  O   -0.272845
   188  H    0.130678
   189  H    0.188837
 Sum of Mulliken charges =  -0.00000

 Dipole moment (field-independent basis, Debye):
    X=            -69.2219    Y=             26.7721    Z=             11.3216  Tot=             75.0773
 Quadrupole moment (field-independent basis, Debye-Ang):
   XX=           -562.2343   YY=           -334.1204   ZZ=           -424.4687
   XY=             13.4292   XZ=           -251.2260   YZ=           -102.7095

 ESP charges:
               1
     1  C   -0.429662
     2  C    0.766564
     3  O   -0.585342
     4  H    0.111218
     5  H    0.090206
     6  H    0.127431
     7  N   -0.813579
     8  C    0.585028
     9  C    0.428052
    10  O   -0.491127
    11  C   -0.446469
    12  C    0.891892
    13  O   -0.620723
    14  O   -0.907607
    15  H    0.367646
    16  H   -0.051532
    17  H    0.076351
    18  H    0.095952
    19  N   -0.409111
    20  C   -0.138665
    21  C    0.667967
    22  O   -0.590555
    23  C   -0.217374
    24  C    0.315708
    25  C   -0.160493
    26  C    0.236864
    27  N   -0.506541
    28  H    0.422267
    29  H    0.112719
    30  H    0.073613
    31  H    0.074668
    32  H   -0.104456
    33  H   -0.026425
    34  H    0.016543
    35  H    0.050691
    36  H    0.062725
    37  H    0.024759
    38  H    0.354307
    39  H    0.354523
    40  H    0.362070
    41  N   -0.481806
    42  C    0.268024
    43  C    0.306728
    44  O   -0.534126
    45  C   -0.474540
    46  C    0.859898
    47  O   -0.690243
    48  O   -0.782108
    49  H    0.279709
    50  H    0.084068
    51  H    0.094379
    52  H    0.139626
    53  N    0.140423
    54  C   -0.300098
    55  C    0.597650
    56  O   -0.584740
    57  H   -0.194129
    58  H    0.128201
    59  H    0.138990
    60  N   -0.336279
    61  C   -0.038664
    62  C    0.458877
    63  O   -0.570688
    64  C   -0.316832
    65  C    0.597587
    66  O   -0.414079
    67  O   -0.643651
    68  H    0.224261
    69  H    0.111039
    70  H    0.109262
    71  H    0.110938
    72  N   -0.039472
    73  C   -0.406392
    74  C    0.635415
    75  O   -0.587648
    76  H    0.206366
    77  H    0.162427
    78  H    0.152857
    79  N   -0.048387
    80  C   -0.575814
    81  C    1.053564
    82  O   -0.661756
    83  C    0.564240
    84  C   -0.385364
    85  O   -0.634415
    86  H   -0.012395
    87  H    0.159815
    88  H   -0.014415
    89  H    0.388439
    90  H    0.116322
    91  H    0.081705
    92  H    0.074132
    93  N   -0.849830
    94  C   -0.151372
    95  C    0.716667
    96  O   -0.582536
    97  C    0.285711
    98  C    0.101577
    99  C   -0.459934
   100  C   -0.320655
   101  H    0.365538
   102  H    0.107927
   103  H   -0.004366
   104  H    0.030233
   105  H    0.030873
   106  H    0.092054
   107  H    0.110843
   108  H    0.086123
   109  H    0.066640
   110  H    0.061788
   111  H    0.069202
   112  N   -0.185447
   113  C   -0.266362
   114  C    0.493399
   115  O   -0.426338
   116  C    0.399280
   117  C   -0.385674
   118  O   -0.643876
   119  H    0.227064
   120  H    0.105842
   121  H   -0.019829
   122  H    0.473373
   123  H    0.080051
   124  H    0.097887
   125  H    0.119574
   126  N   -0.203685
   127  C   -0.504854
   128  C    0.725851
   129  O   -0.545326
   130  C    0.482613
   131  C   -0.380060
   132  O   -0.739051
   133  H    0.218010
   134  H    0.200886
   135  H    0.025337
   136  H    0.436660
   137  H    0.126375
   138  H    0.104096
   139  H    0.084362
   140  N   -0.453259
   141  C   -0.014667
   142  C    0.385380
   143  O   -0.512496
   144  C   -0.086048
   145  C    0.039923
   146  C   -0.078245
   147  C    0.125120
   148  N   -0.302626
   149  H    0.337015
   150  H    0.097596
   151  H    0.060513
   152  H    0.042573
   153  H    0.015276
   154  H    0.023988
   155  H    0.037294
   156  H    0.040055
   157  H    0.052551
   158  H    0.048752
   159  H    0.247603
   160  H    0.261144
   161  H    0.253842
   162  N    0.017119
   163  C   -0.469678
   164  C    0.619314
   165  O   -0.574621
   166  C    0.131334
   167  C   -0.201059
   168  C    0.872558
   169  O   -0.689056
   170  O   -0.922571
   171  H    0.061897
   172  H    0.175030
   173  H    0.093691
   174  H   -0.134321
   175  H    0.019257
   176  H    0.054982
   177  N   -0.166045
   178  C   -0.218946
   179  H    0.091351
   180  H    0.102404
   181  H    0.070842
   182  H    0.212461
   183  Ca   1.759371
   184  O   -0.775514
   185  H    0.342402
   186  H    0.368919
   187  O   -0.738554
   188  H    0.329934
   189  H    0.402570
 Sum of ESP charges =   0.00000

 Normal termination of Gaussian 16 at Wed Feb 26 19:46:40 2020.
