 Gaussian 16, Revision C.01,
 Gaussian 16:  ES64L-G16RevC.01  3-Jul-2019

 ----------------------------------------------------------------------
 #b3lyp/svp scf=(tight,noincore,xqc) Test #IOP(5/87=12) Density=Current
  Pop=(MK,readradii) iop(6/33=2) iop(6/42=6)
 ----------------------------------------------------------------------

 ----------------
 loop1.cluster100
 ----------------
 Symbolic Z-matrix:
 Charge =  0 Multiplicity = 1

                         Standard orientation:
 ---------------------------------------------------------------------
 Center     Atomic      Atomic             Coordinates (Angstroms)
 Number     Number       Type             X           Y           Z
 ---------------------------------------------------------------------
      1          6           0       -2.484948    4.835848   -3.996338
      2          6           0       -2.483205    3.817418   -2.912638
      3          8           0       -1.443055    3.242212   -2.632478
      4          1           0       -1.451786    5.018228   -4.358311
      5          1           0       -3.119256    4.479270   -4.833504
      6          1           0       -2.897875    5.781996   -3.588693
      7          7           0       -3.624938    3.576436   -2.215803
      8          6           0       -3.695073    2.637794   -1.113096
      9          6           0       -4.937831    1.765609   -1.238433
     10          8           0       -5.623066    1.537445   -0.258524
     11          6           0       -3.595672    3.398111    0.230478
     12          6           0       -4.681147    4.403850    0.496108
     13          8           0       -4.770424    4.987398    1.705356
     14          8           0       -5.466154    4.717394   -0.376567
     15          1           0       -4.466002    4.120566   -2.458238
     16          1           0       -2.835287    1.944662   -1.141879
     17          1           0       -2.626769    3.937818    0.289131
     18          1           0       -3.615223    2.652096    1.027646
     19          7           0       -5.311653    1.302611   -2.469347
     20          6           0       -6.504374    0.481344   -2.677150
     21          6           0       -6.198867   -0.537250   -3.759548
     22          8           0       -6.010686   -0.117680   -4.890897
     23          6           0       -7.690518    1.362088   -3.143453
     24          6           0       -8.112093    2.327833   -2.032194
     25          6           0       -9.243710    3.280891   -2.436219
     26          6           0       -9.538220    4.323545   -1.336344
     27          7           0       -8.345968    5.093100   -0.979177
     28          1           0       -4.774239    1.599846   -3.292669
     29          1           0       -6.812889    0.003742   -1.734844
     30          1           0       -8.556761    0.719522   -3.413724
     31          1           0       -7.388229    1.942249   -4.045934
     32          1           0       -7.222486    2.935293   -1.798304
     33          1           0       -8.422620    1.749845   -1.134225
     34          1           0      -10.171780    2.704563   -2.645498
     35          1           0       -8.952722    3.822144   -3.362026
     36          1           0       -9.928502    3.823466   -0.421500
     37          1           0      -10.319388    5.018120   -1.710975
     38          1           0       -8.606407    5.925984   -0.406660
     39          1           0       -7.746479    4.491236   -0.377624
     40          1           0       -7.828386    5.408775   -1.833621
     41          7           0       -6.092416   -1.885525   -3.545840
     42          6           0       -6.089043   -2.609282   -2.274231
     43          6           0       -7.414068   -2.647032   -1.522835
     44          8           0       -8.307997   -1.888842   -1.870244
     45          6           0       -4.987470   -2.094788   -1.352518
     46          6           0       -3.662190   -1.939702   -1.978027
     47          8           0       -3.134741   -2.872370   -2.565785
     48          8           0       -2.933105   -0.885837   -1.602305
     49          1           0       -5.887178   -2.458286   -4.381448
     50          1           0       -5.860085   -3.661562   -2.552524
     51          1           0       -4.843810   -2.796070   -0.545060
     52          1           0       -5.240633   -1.142687   -0.860030
     53          7           0       -7.661446   -3.524357   -0.491967
     54          6           0       -6.767084   -4.593400   -0.029274
     55          6           0       -6.682779   -4.596679    1.491358
     56          8           0       -7.730665   -4.764345    2.098489
     57          1           0       -8.593291   -3.479634   -0.050416
     58          1           0       -5.806372   -4.618195   -0.549220
     59          1           0       -7.236542   -5.560874   -0.304221
     60          7           0       -5.539474   -4.413169    2.227423
     61          6           0       -4.197725   -4.123684    1.719559
     62          6           0       -3.895408   -2.623129    1.785571
     63          8           0       -2.883799   -2.205758    1.239170
     64          6           0       -3.150613   -4.958576    2.491100
     65          6           0       -3.254137   -4.767661    3.983888
     66          8           0       -3.602260   -5.697280    4.693242
     67          8           0       -3.019709   -3.567111    4.538791
     68          1           0       -5.662254   -4.383993    3.251331
     69          1           0       -4.103291   -4.427793    0.662785
     70          1           0       -2.118202   -4.714359    2.155254
     71          1           0       -3.332533   -6.030617    2.261223
     72          7           0       -4.763744   -1.746807    2.380254
     73          6           0       -4.635351   -0.294783    2.313783
     74          6           0       -3.419811    0.348068    2.972431
     75          8           0       -3.353972    1.565084    3.003321
     76          1           0       -5.612686   -2.108695    2.834395
     77          1           0       -5.543211    0.141910    2.784386
     78          1           0       -4.630140   -0.005227    1.249191
     79          7           0       -2.419758   -0.383550    3.517960
     80          6           0       -1.179700    0.206823    4.033097
     81          6           0       -0.342133    0.842582    2.933233
     82          8           0       -0.098586    0.203275    1.920025
     83          6           0       -0.355499   -0.872278    4.781524
     84          6           0        1.108001   -0.483049    5.020232
     85          8           0       -0.364627   -2.086765    4.082299
     86          1           0       -2.530475   -1.398077    3.550633
     87          1           0       -1.413574    0.993184    4.783845
     88          1           0       -0.865770   -0.994737    5.766849
     89          1           0       -0.666073   -2.787692    4.715737
     90          1           0        1.590670   -1.255413    5.651229
     91          1           0        1.656504   -0.458320    4.050153
     92          1           0        1.192478    0.509355    5.506523
     93          7           0        0.217842    2.080093    3.137200
     94          6           0        1.135448    2.708968    2.192179
     95          6           0        2.473237    3.049443    2.826152
     96          8           0        2.650681    4.134325    3.357903
     97          6           0        0.472284    3.916280    1.479050
     98          6           0        1.419157    4.491237    0.389759
     99          6           0        0.025781    5.030989    2.456554
    100          6           0        0.698494    5.379167   -0.616709
    101          1           0        0.009336    2.577459    4.013790
    102          1           0        1.366183    1.984890    1.384887
    103          1           0       -0.430827    3.485725    0.997726
    104          1           0        1.892560    3.671505   -0.192955
    105          1           0        2.241146    5.062838    0.874630
    106          1           0       -0.499107    4.621424    3.340935
    107          1           0        0.887147    5.629098    2.820340
    108          1           0       -0.673320    5.730585    1.961447
    109          1           0        0.148755    6.202101   -0.121432
    110          1           0        1.440011    5.816715   -1.317769
    111          1           0       -0.012684    4.762314   -1.200174
    112          7           0        3.493223    2.162944    2.730156
    113          6           0        4.875850    2.501590    3.048926
    114          6           0        5.797572    2.083886    1.899355
    115          8           0        7.008567    2.129608    2.064800
    116          6           0        5.268510    1.849280    4.390341
    117          6           0        5.245439    0.322313    4.339096
    118          8           0        4.389619    2.281340    5.398310
    119          1           0        3.287362    1.214604    2.381053
    120          1           0        4.999113    3.598888    3.197313
    121          1           0        6.306212    2.156808    4.659337
    122          1           0        4.569483    3.247373    5.547268
    123          1           0        4.237713   -0.052016    4.067643
    124          1           0        5.984936   -0.050259    3.600722
    125          1           0        5.512503   -0.081291    5.336797
    126          7           0        5.277160    1.675139    0.698155
    127          6           0        6.035096    1.149460   -0.430145
    128          6           0        6.534487   -0.258601   -0.161306
    129          8           0        6.549914   -0.707575    0.976251
    130          6           0        7.191976    2.084693   -0.906673
    131          6           0        6.717944    3.528763   -1.078717
    132          8           0        7.693191    1.615977   -2.134282
    133          1           0        4.262596    1.738141    0.542446
    134          1           0        5.304076    1.051935   -1.263235
    135          1           0        8.017343    2.072370   -0.159194
    136          1           0        8.424455    2.219746   -2.424946
    137          1           0        6.421890    3.959712   -0.100982
    138          1           0        7.548630    4.149164   -1.478872
    139          1           0        5.862372    3.566600   -1.782529
    140          7           0        7.007939   -0.990945   -1.208116
    141          6           0        7.773477   -2.205251   -1.052580
    142          6           0        7.355446   -3.435688   -1.859913
    143          8           0        8.044132   -4.430700   -1.670233
    144          6           0        9.215871   -1.830016   -1.442909
    145          6           0        9.852348   -0.935209   -0.372967
    146          6           0       11.265435   -0.536299   -0.783833
    147          6           0       12.009710    0.112438    0.385433
    148          7           0       13.406473    0.350477    0.029929
    149          1           0        6.971852   -0.579746   -2.138714
    150          1           0        7.766966   -2.549021    0.006259
    151          1           0        9.210825   -1.325615   -2.438100
    152          1           0        9.853552   -2.735072   -1.524927
    153          1           0        9.893661   -1.532985    0.564302
    154          1           0        9.258337   -0.018464   -0.176984
    155          1           0       11.219431    0.162357   -1.650608
    156          1           0       11.821890   -1.447527   -1.086979
    157          1           0       11.981156   -0.570930    1.264582
    158          1           0       11.514344    1.067802    0.668147
    159          1           0       13.468080    0.934935   -0.834630
    160          1           0       13.882379    0.843573    0.818532
    161          1           0       13.885955   -0.566196   -0.131093
    162          7           0        6.329306   -3.570531   -2.755169
    163          6           0        5.324486   -2.640366   -3.252032
    164          6           0        5.887374   -1.533680   -4.114603
    165          8           0        5.432086   -0.397704   -4.040523
    166          6           0        4.273633   -2.249773   -2.198786
    167          6           0        2.935342   -2.015814   -2.891403
    168          6           0        1.885467   -1.705504   -1.906670
    169          8           0        0.828452   -2.509136   -1.809960
    170          8           0        1.938338   -0.684532   -1.242086
    171          1           0        6.254386   -4.511633   -3.176658
    172          1           0        4.773577   -3.261690   -3.994270
    173          1           0        4.567909   -1.361657   -1.608404
    174          1           0        4.123430   -3.099398   -1.496208
    175          1           0        2.633047   -2.944666   -3.429816
    176          1           0        2.987713   -1.187622   -3.626579
    177          7           0        6.885430   -1.824916   -4.991416
    178          6           0        7.440502   -0.864852   -5.917088
    179          1           0        8.520179   -0.727247   -5.701514
    180          1           0        7.327135   -1.270452   -6.943845
    181          1           0        6.931825    0.120406   -5.870822
    182          1           0        7.271373   -2.780359   -5.006836
    183         20           0       -0.926136   -1.495543   -1.034473
    184          8           0       -1.309277   -4.246136   -0.500402
    185          1           0       -1.151418   -4.618631   -1.403450
    186          1           0       -0.716446   -4.769445    0.093529
    187          8           0        0.699844   -2.792331    1.331865
    188          1           0        1.297925   -3.472459    0.935542
    189          1           0        0.979053   -2.767038    2.277437
    190          8           0       -0.153504    1.103711   -0.657537
    191          1           0       -0.764558    1.357875   -1.384033
    192          1           0        0.543250    1.799569   -0.674981
 ---------------------------------------------------------------------

 SCF Done:  E(RB3LYP) =  -5640.10559392     A.U. after   33 cycles
 SCF Done:  E(RB3LYP) =  -5641.30714850     a.u. after   21 cycles

 The electronic state is 1-A.
 Alpha  occ. eigenvalues -- -145.30408 -19.16622 -19.11836 -19.11713 -19.11271
 Alpha  occ. eigenvalues --  -19.11155 -19.10843 -19.10270 -19.10022 -19.08631
 Alpha  occ. eigenvalues --  -19.08439 -19.07946 -19.07400 -19.06915 -19.06638
 Alpha  occ. eigenvalues --  -19.06121 -19.05930 -19.05134 -19.05039 -19.04284
 Alpha  occ. eigenvalues --  -19.03829 -19.03067 -19.02910 -19.02850 -19.01390
 Alpha  occ. eigenvalues --  -18.98376 -18.97430 -18.96763 -15.36617 -14.57757
 Alpha  occ. eigenvalues --  -14.49612 -14.38148 -14.37693 -14.36564 -14.36231
 Alpha  occ. eigenvalues --  -14.34558 -14.33624 -14.32647 -14.31972 -14.31951
 Alpha  occ. eigenvalues --  -14.31843 -14.31802 -14.30763 -14.28190 -12.50224
 Alpha  occ. eigenvalues --  -12.50200 -12.50038 -10.35092 -10.30770 -10.30437
 Alpha  occ. eigenvalues --  -10.29562 -10.29012 -10.28951 -10.28549 -10.26511
 Alpha  occ. eigenvalues --  -10.26423 -10.26330 -10.26325 -10.25637 -10.25630
 Alpha  occ. eigenvalues --  -10.25613 -10.25295 -10.25169 -10.25053 -10.24788
 Alpha  occ. eigenvalues --  -10.24547 -10.23874 -10.23802 -10.23394 -10.23387
 Alpha  occ. eigenvalues --  -10.23082 -10.22944 -10.22860 -10.22587 -10.21862
 Alpha  occ. eigenvalues --  -10.21751 -10.21667 -10.20436 -10.20348 -10.20096
 Alpha  occ. eigenvalues --  -10.19978 -10.19646 -10.18784 -10.18676 -10.18673
 Alpha  occ. eigenvalues --  -10.18550 -10.18486 -10.17755 -10.17690 -10.17628
 Alpha  occ. eigenvalues --  -10.17537 -10.16474 -10.15874 -10.15812 -10.15791
 Alpha  occ. eigenvalues --  -10.15122 -10.14936 -10.14694 -10.13340 -10.12901
 Alpha  occ. eigenvalues --  -10.11142  -1.74306  -1.11886  -1.05100  -1.04706
 Alpha  occ. eigenvalues --   -1.04433  -1.03886  -1.03796  -1.02827  -1.02811
 Alpha  occ. eigenvalues --   -1.02177  -1.02047  -1.01363  -1.00713  -1.00124
 Alpha  occ. eigenvalues --   -0.99888  -0.99620  -0.99409  -0.99004  -0.98310
 Alpha  occ. eigenvalues --   -0.98109  -0.97983  -0.97397  -0.96550  -0.96107
 Alpha  occ. eigenvalues --   -0.95585  -0.95039  -0.94222  -0.94180  -0.93688
 Alpha  occ. eigenvalues --   -0.93125  -0.92533  -0.92150  -0.91851  -0.90033
 Alpha  occ. eigenvalues --   -0.88612  -0.88562  -0.88501  -0.88282  -0.87826
 Alpha  occ. eigenvalues --   -0.87364  -0.87273  -0.86861  -0.86241  -0.85680
 Alpha  occ. eigenvalues --   -0.83986  -0.81983  -0.81807  -0.79868  -0.79678
 Alpha  occ. eigenvalues --   -0.78971  -0.78597  -0.77077  -0.76439  -0.76036
 Alpha  occ. eigenvalues --   -0.75629  -0.74553  -0.74173  -0.73601  -0.72970
 Alpha  occ. eigenvalues --   -0.72845  -0.71754  -0.71627  -0.71174  -0.70758
 Alpha  occ. eigenvalues --   -0.70439  -0.70067  -0.69814  -0.68917  -0.68779
 Alpha  occ. eigenvalues --   -0.67968  -0.67594  -0.65874  -0.65627  -0.64643
 Alpha  occ. eigenvalues --   -0.64339  -0.64103  -0.63319  -0.62995  -0.62359
 Alpha  occ. eigenvalues --   -0.62035  -0.61370  -0.61172  -0.60871  -0.60783
 Alpha  occ. eigenvalues --   -0.60275  -0.59565  -0.59397  -0.58634  -0.58586
 Alpha  occ. eigenvalues --   -0.57940  -0.57129  -0.56924  -0.56538  -0.56310
 Alpha  occ. eigenvalues --   -0.55902  -0.55706  -0.55006  -0.54846  -0.54550
 Alpha  occ. eigenvalues --   -0.54417  -0.54353  -0.53931  -0.53602  -0.53319
 Alpha  occ. eigenvalues --   -0.53119  -0.52024  -0.51695  -0.51407  -0.51142
 Alpha  occ. eigenvalues --   -0.50693  -0.50358  -0.50293  -0.49939  -0.49816
 Alpha  occ. eigenvalues --   -0.49645  -0.49119  -0.49029  -0.48917  -0.48871
 Alpha  occ. eigenvalues --   -0.48710  -0.48620  -0.48263  -0.48113  -0.47673
 Alpha  occ. eigenvalues --   -0.47299  -0.47187  -0.46818  -0.46642  -0.46429
 Alpha  occ. eigenvalues --   -0.46338  -0.46269  -0.46097  -0.46001  -0.45945
 Alpha  occ. eigenvalues --   -0.45832  -0.45601  -0.45301  -0.44901  -0.44648
 Alpha  occ. eigenvalues --   -0.44525  -0.44377  -0.44277  -0.44098  -0.44011
 Alpha  occ. eigenvalues --   -0.43877  -0.43260  -0.43197  -0.43103  -0.42745
 Alpha  occ. eigenvalues --   -0.42568  -0.42468  -0.42308  -0.42248  -0.42198
 Alpha  occ. eigenvalues --   -0.42111  -0.41699  -0.41519  -0.41433  -0.41328
 Alpha  occ. eigenvalues --   -0.40924  -0.40892  -0.40635  -0.40399  -0.40139
 Alpha  occ. eigenvalues --   -0.40006  -0.39926  -0.39639  -0.39444  -0.39281
 Alpha  occ. eigenvalues --   -0.39221  -0.39154  -0.39028  -0.38960  -0.38748
 Alpha  occ. eigenvalues --   -0.38645  -0.38609  -0.38446  -0.38324  -0.38252
 Alpha  occ. eigenvalues --   -0.38154  -0.37841  -0.37792  -0.37574  -0.37312
 Alpha  occ. eigenvalues --   -0.37305  -0.37220  -0.36998  -0.36966  -0.36768
 Alpha  occ. eigenvalues --   -0.36684  -0.36585  -0.36486  -0.36423  -0.36350
 Alpha  occ. eigenvalues --   -0.36273  -0.36111  -0.35946  -0.35785  -0.35710
 Alpha  occ. eigenvalues --   -0.35446  -0.35196  -0.35157  -0.34846  -0.34670
 Alpha  occ. eigenvalues --   -0.34501  -0.34465  -0.34412  -0.34276  -0.34029
 Alpha  occ. eigenvalues --   -0.33795  -0.33544  -0.33509  -0.33318  -0.33255
 Alpha  occ. eigenvalues --   -0.33136  -0.33054  -0.32903  -0.32730  -0.32568
 Alpha  occ. eigenvalues --   -0.32249  -0.32085  -0.32043  -0.31914  -0.31607
 Alpha  occ. eigenvalues --   -0.31498  -0.31309  -0.30447  -0.30126  -0.29908
 Alpha  occ. eigenvalues --   -0.29462  -0.29105  -0.29087  -0.28907  -0.28782
 Alpha  occ. eigenvalues --   -0.28436  -0.28292  -0.28027  -0.27852  -0.27782
 Alpha  occ. eigenvalues --   -0.27717  -0.27403  -0.27260  -0.26973  -0.26714
 Alpha  occ. eigenvalues --   -0.26248  -0.25915  -0.25787  -0.25252  -0.24383
 Alpha  occ. eigenvalues --   -0.24137  -0.24072  -0.23960  -0.23786  -0.23173
 Alpha  occ. eigenvalues --   -0.23118  -0.23026  -0.22967  -0.22761  -0.22577
 Alpha  occ. eigenvalues --   -0.22272  -0.21835  -0.21745  -0.21510  -0.21271
 Alpha  occ. eigenvalues --   -0.21145  -0.21126  -0.20956  -0.20808  -0.19898
 Alpha  occ. eigenvalues --   -0.19236  -0.19050  -0.18541  -0.18275  -0.17109
 Alpha  occ. eigenvalues --   -0.15187  -0.14932  -0.14645  -0.12157  -0.12098
 Alpha virt. eigenvalues --   -0.11533  -0.05559  -0.05241  -0.02764  -0.02465
 Alpha virt. eigenvalues --   -0.01388  -0.00954  -0.00035   0.00118   0.01278
 Alpha virt. eigenvalues --    0.01518   0.01938   0.02098   0.02312   0.02813

 Mulliken charges:
               1
     1  C    0.039295
     2  C    0.049022
     3  O   -0.302301
     4  H    0.033771
     5  H    0.029091
     6  H    0.032327
     7  N   -0.167726
     8  C    0.110945
     9  C    0.112920
    10  O   -0.283223
    11  C    0.077912
    12  C    0.066468
    13  O   -0.440163
    14  O   -0.401273
    15  H    0.106361
    16  H    0.018780
    17  H    0.017067
    18  H    0.048126
    19  N   -0.174628
    20  C    0.109163
    21  C    0.101685
    22  O   -0.286677
    23  C    0.063578
    24  C   -0.053259
    25  C   -0.010211
    26  C    0.022951
    27  N    0.036827
    28  H    0.119838
    29  H    0.018073
    30  H    0.013196
    31  H   -0.007309
    32  H    0.007323
    33  H    0.031044
    34  H    0.040481
    35  H    0.007728
    36  H    0.070406
    37  H    0.048312
    38  H    0.194560
    39  H    0.222623
    40  H    0.199198
    41  N   -0.112901
    42  C    0.024640
    43  C    0.113981
    44  O   -0.264147
    45  C    0.077526
    46  C    0.147496
    47  O   -0.333672
    48  O   -0.624931
    49  H    0.136491
    50  H    0.015354
    51  H    0.013734
    52  H    0.030296
    53  N   -0.175854
    54  C    0.184327
    55  C    0.040607
    56  O   -0.282391
    57  H    0.142291
    58  H    0.027527
    59  H    0.026125
    60  N   -0.151556
    61  C    0.047613
    62  C    0.114389
    63  O   -0.301515
    64  C    0.136381
    65  C    0.007288
    66  O   -0.295927
    67  O   -0.460073
    68  H    0.164355
    69  H    0.026089
    70  H    0.011112
    71  H   -0.021903
    72  N   -0.172115
    73  C    0.188771
    74  C    0.046832
    75  O   -0.285775
    76  H    0.121656
    77  H    0.028497
    78  H    0.068876
    79  N   -0.130071
    80  C    0.203420
    81  C    0.074924
    82  O   -0.255488
    83  C    0.062452
    84  C    0.034028
    85  O   -0.306240
    86  H    0.151788
    87  H   -0.017072
    88  H    0.013739
    89  H    0.187066
    90  H    0.003743
    91  H    0.029764
    92  H    0.001522
    93  N   -0.163116
    94  C    0.125490
    95  C    0.088542
    96  O   -0.273674
    97  C   -0.063723
    98  C   -0.021174
    99  C    0.032359
   100  C    0.011028
   101  H    0.137448
   102  H   -0.010406
   103  H    0.022204
   104  H   -0.035866
   105  H    0.006377
   106  H    0.004622
   107  H    0.018261
   108  H    0.019340
   109  H    0.010939
   110  H   -0.011168
   111  H    0.028489
   112  N   -0.187741
   113  C    0.120287
   114  C    0.099660
   115  O   -0.291737
   116  C    0.135155
   117  C   -0.004522
   118  O   -0.290009
   119  H    0.153388
   120  H    0.031238
   121  H   -0.010912
   122  H    0.175762
   123  H    0.013617
   124  H    0.040845
   125  H    0.013893
   126  N   -0.162107
   127  C    0.118994
   128  C    0.081970
   129  O   -0.243531
   130  C    0.077585
   131  C    0.047283
   132  O   -0.309006
   133  H    0.141131
   134  H    0.046583
   135  H   -0.000970
   136  H    0.170980
   137  H    0.034172
   138  H   -0.011157
   139  H    0.029295
   140  N   -0.183014
   141  C    0.087895
   142  C    0.104026
   143  O   -0.279293
   144  C    0.014010
   145  C   -0.013679
   146  C   -0.040945
   147  C    0.014550
   148  N    0.090359
   149  H    0.152070
   150  H    0.053517
   151  H   -0.006611
   152  H    0.020285
   153  H    0.023460
   154  H    0.049911
   155  H    0.021794
   156  H    0.012282
   157  H    0.072795
   158  H    0.081864
   159  H    0.146264
   160  H    0.148565
   161  H    0.148078
   162  N   -0.134362
   163  C    0.067107
   164  C    0.047945
   165  O   -0.256024
   166  C    0.046184
   167  C    0.081217
   168  C    0.103331
   169  O   -0.627878
   170  O   -0.324641
   171  H    0.138628
   172  H    0.018413
   173  H    0.030344
   174  H    0.003881
   175  H   -0.016129
   176  H    0.028979
   177  N   -0.174183
   178  C    0.096164
   179  H    0.012676
   180  H    0.031488
   181  H    0.066657
   182  H    0.118596
   183  Ca   1.381829
   184  O   -0.282584
   185  H    0.182631
   186  H    0.168675
   187  O   -0.280704
   188  H    0.143421
   189  H    0.162153
   190  O   -0.297096
   191  H    0.172893
   192  H    0.190716
 Sum of Mulliken charges =  -0.00000

 Dipole moment (field-independent basis, Debye):
    X=             45.7475    Y=             12.6097    Z=            -19.5916  Tot=             51.3388
 Quadrupole moment (field-independent basis, Debye-Ang):
   XX=             90.1372   YY=           -609.3873   ZZ=           -639.8385
   XY=            -95.1200   XZ=             30.2270   YZ=             20.3381

 ESP charges:
               1
     1  C   -0.480032
     2  C    0.875664
     3  O   -0.671919
     4  H    0.136127
     5  H    0.106974
     6  H    0.113350
     7  N   -0.746569
     8  C    0.363895
     9  C    0.432561
    10  O   -0.563224
    11  C   -0.014741
    12  C    0.694602
    13  O   -0.669810
    14  O   -0.765897
    15  H    0.329305
    16  H    0.027881
    17  H   -0.010753
    18  H   -0.018356
    19  N   -0.468321
    20  C    0.238704
    21  C    0.674046
    22  O   -0.572451
    23  C   -0.409550
    24  C    0.338593
    25  C   -0.215907
    26  C    0.032212
    27  N   -0.340320
    28  H    0.258802
    29  H    0.081302
    30  H    0.101265
    31  H    0.084285
    32  H   -0.047362
    33  H   -0.008208
    34  H    0.078466
    35  H    0.058123
    36  H    0.077782
    37  H    0.055722
    38  H    0.317525
    39  H    0.339121
    40  H    0.339411
    41  N   -0.736332
    42  C    0.383492
    43  C    0.465588
    44  O   -0.548151
    45  C   -0.323657
    46  C    0.764586
    47  O   -0.653673
    48  O   -0.860185
    49  H    0.363037
    50  H    0.017785
    51  H    0.141757
    52  H    0.080337
    53  N   -0.500390
    54  C   -0.019586
    55  C    0.537971
    56  O   -0.542255
    57  H    0.338308
    58  H    0.029991
    59  H    0.082934
    60  N   -0.555870
    61  C    0.379527
    62  C   -0.027711
    63  O   -0.321340
    64  C   -0.423472
    65  C    0.758713
    66  O   -0.623158
    67  O   -0.730747
    68  H    0.351394
    69  H    0.067584
    70  H    0.138338
    71  H    0.069703
    72  N   -0.275352
    73  C   -0.269189
    74  C    0.655750
    75  O   -0.552346
    76  H    0.296792
    77  H    0.143897
    78  H    0.182610
    79  N   -0.488436
    80  C   -0.037238
    81  C    0.693643
    82  O   -0.489066
    83  C    0.242017
    84  C   -0.358866
    85  O   -0.515981
    86  H    0.367753
    87  H    0.047940
    88  H    0.048707
    89  H    0.370789
    90  H    0.088513
    91  H    0.128532
    92  H    0.076027
    93  N   -0.617385
    94  C   -0.139669
    95  C    0.633546
    96  O   -0.519718
    97  C    0.458608
    98  C    0.036469
    99  C   -0.347533
   100  C   -0.171656
   101  H    0.339398
   102  H    0.082439
   103  H   -0.050103
   104  H   -0.049816
   105  H   -0.020228
   106  H    0.075271
   107  H    0.064668
   108  H    0.079231
   109  H    0.032763
   110  H    0.029329
   111  H    0.042415
   112  N   -0.505919
   113  C   -0.194209
   114  C    0.787641
   115  O   -0.628106
   116  C    0.444266
   117  C   -0.268768
   118  O   -0.591809
   119  H    0.332647
   120  H    0.110172
   121  H   -0.043915
   122  H    0.377703
   123  H    0.068403
   124  H    0.077542
   125  H    0.073030
   126  N   -0.882770
   127  C    0.742016
   128  C    0.518127
   129  O   -0.538725
   130  C    0.071722
   131  C   -0.374987
   132  O   -0.648207
   133  H    0.330566
   134  H   -0.029638
   135  H    0.093682
   136  H    0.414933
   137  H    0.109813
   138  H    0.091414
   139  H    0.114023
   140  N   -0.545575
   141  C    0.140818
   142  C    0.517958
   143  O   -0.552978
   144  C   -0.334382
   145  C    0.194804
   146  C   -0.092819
   147  C    0.129581
   148  N   -0.334268
   149  H    0.310631
   150  H    0.120419
   151  H    0.092448
   152  H    0.102484
   153  H    0.022852
   154  H   -0.073818
   155  H    0.035470
   156  H    0.025896
   157  H    0.051299
   158  H    0.062826
   159  H    0.260525
   160  H    0.267383
   161  H    0.269561
   162  N   -0.505139
   163  C   -0.160628
   164  C    0.472097
   165  O   -0.488254
   166  C    0.473202
   167  C   -0.339921
   168  C    0.762754
   169  O   -0.870744
   170  O   -0.660690
   171  H    0.328763
   172  H    0.086279
   173  H   -0.162763
   174  H   -0.029153
   175  H    0.047061
   176  H    0.087611
   177  N   -0.297068
   178  C   -0.045121
   179  H    0.032454
   180  H    0.051010
   181  H    0.089425
   182  H    0.249288
   183  Ca   1.603405
   184  O   -0.813126
   185  H    0.417617
   186  H    0.383760
   187  O   -0.745654
   188  H    0.371649
   189  H    0.346417
   190  O   -0.759452
   191  H    0.373225
   192  H    0.408589
 Sum of ESP charges =   0.00000

 Normal termination of Gaussian 16 at Wed Feb 26 17:57:03 2020.
