 Gaussian 16, Revision A.03,
 Gaussian 16:  ES64L-G16RevA.03 25-Dec-2016

 ----------------------------------------------------------------------
 #b3lyp/svp scf=(tight,noincore) Test #IOP(5/87=12) Density=Current Pop
 =(MK,readradii) iop(6/33=2) iop(6/42=6)
 ----------------------------------------------------------------------

 ---------------
 loop1.cluster10
 ---------------
 Symbolic Z-matrix:
 Charge =  0 Multiplicity = 1

                         Standard orientation:
 ---------------------------------------------------------------------
 Center     Atomic      Atomic             Coordinates (Angstroms)
 Number     Number       Type             X           Y           Z
 ---------------------------------------------------------------------
      1          6           0        2.998205   -4.607818    3.788507
      2          6           0        3.393683   -3.647603    2.710055
      3          8           0        3.200519   -3.922406    1.537003
      4          1           0        3.894241   -4.864737    4.391470
      5          1           0        2.258926   -4.105860    4.452496
      6          1           0        2.543488   -5.529238    3.375046
      7          7           0        3.929045   -2.458595    3.074608
      8          6           0        4.229497   -1.361205    2.162464
      9          6           0        5.459451   -1.549131    1.269980
     10          8           0        5.874435   -0.564326    0.671647
     11          6           0        4.343210   -0.045096    2.983045
     12          6           0        5.441495    0.014332    4.010002
     13          8           0        5.385254   -0.660256    5.026451
     14          8           0        6.445453    0.896439    3.854039
     15          1           0        4.017521   -2.294298    4.084202
     16          1           0        3.360350   -1.190991    1.490914
     17          1           0        3.377730    0.148234    3.499034
     18          1           0        4.510977    0.789904    2.281107
     19          7           0        6.113848   -2.745927    1.132615
     20          6           0        7.365889   -2.848340    0.383284
     21          6           0        7.332784   -3.891533   -0.737270
     22          8           0        7.574147   -5.054905   -0.443769
     23          6           0        8.503753   -3.159179    1.383549
     24          6           0        8.723010   -1.962430    2.324791
     25          6           0        9.808662   -2.231981    3.374069
     26          6           0       10.018987   -1.035767    4.323708
     27          7           0        8.905989   -0.868037    5.260461
     28          1           0        5.772187   -3.583088    1.620754
     29          1           0        7.631617   -1.885983   -0.058280
     30          1           0        9.452827   -3.365580    0.841406
     31          1           0        8.235259   -4.067609    1.971745
     32          1           0        7.768062   -1.723529    2.827900
     33          1           0        9.031864   -1.087164    1.709143
     34          1           0       10.761190   -2.422531    2.835156
     35          1           0        9.557134   -3.133194    3.974146
     36          1           0       10.171655   -0.102963    3.734508
     37          1           0       10.939098   -1.216328    4.918984
     38          1           0        9.092267   -0.045331    5.878474
     39          1           0        8.016469   -0.702189    4.753777
     40          1           0        8.803777   -1.721791    5.855240
     41          7           0        7.138018   -3.583278   -2.066547
     42          6           0        6.653922   -2.306400   -2.617575
     43          6           0        7.628221   -1.135861   -2.421287
     44          8           0        8.756491   -1.404591   -2.034951
     45          6           0        5.174273   -2.125349   -2.183260
     46          6           0        4.242478   -1.871787   -3.339704
     47          8           0        3.252026   -0.971771   -3.219583
     48          8           0        4.328080   -2.540607   -4.359185
     49          1           0        7.240611   -4.357200   -2.744692
     50          1           0        6.646353   -2.454967   -3.720154
     51          1           0        5.041934   -1.382888   -1.385653
     52          1           0        4.810184   -3.083221   -1.755332
     53          7           0        7.348610    0.175236   -2.718096
     54          6           0        6.064188    0.711550   -3.169680
     55          6           0        6.162973    2.181004   -3.592472
     56          8           0        7.270434    2.699523   -3.672060
     57          1           0        8.125708    0.839754   -2.579159
     58          1           0        5.330332    0.610623   -2.348460
     59          1           0        5.723346    0.159240   -4.069102
     60          7           0        5.075178    2.937988   -3.937919
     61          6           0        3.681559    2.529251   -3.741914
     62          6           0        3.348544    2.389544   -2.264271
     63          8           0        2.453107    1.625044   -1.941078
     64          6           0        2.690604    3.488082   -4.450483
     65          6           0        2.814943    4.958079   -4.112988
     66          8           0        3.710577    5.400638   -3.209284
     67          8           0        2.108852    5.765314   -4.695087
     68          1           0        5.257355    3.875251   -4.321039
     69          1           0        3.546405    1.534323   -4.221365
     70          1           0        1.647432    3.165238   -4.234875
     71          1           0        2.854731    3.388301   -5.544533
     72          7           0        4.093258    3.022528   -1.310749
     73          6           0        4.045530    2.684624    0.100909
     74          6           0        2.784852    3.001067    0.867368
     75          8           0        2.592540    2.404096    1.917795
     76          1           0        4.824684    3.684664   -1.604992
     77          1           0        4.854712    3.235416    0.625356
     78          1           0        4.278450    1.605533    0.198818
     79          7           0        1.946920    4.009760    0.504594
     80          6           0        0.827582    4.398249    1.362667
     81          6           0       -0.128131    3.235399    1.560854
     82          8           0       -0.598804    2.673121    0.587403
     83          6           0        0.102702    5.675960    0.873306
     84          6           0       -0.578549    5.551962   -0.496379
     85          8           0        0.988319    6.769590    0.895784
     86          1           0        2.146172    4.539835   -0.354609
     87          1           0        1.245295    4.680572    2.356720
     88          1           0       -0.700365    5.906806    1.609717
     89          1           0        1.583463    6.708539    0.105196
     90          1           0       -1.378616    4.785505   -0.473667
     91          1           0       -1.048919    6.523284   -0.755559
     92          1           0        0.155805    5.290197   -1.284879
     93          7           0       -0.396210    2.794870    2.823251
     94          6           0       -1.237989    1.641481    3.169980
     95          6           0       -2.751361    2.009562    3.141806
     96          8           0       -3.458455    1.750345    4.100563
     97          6           0       -0.717927    1.106497    4.567704
     98          6           0       -1.228945   -0.280292    5.038536
     99          6           0       -0.942308    2.129097    5.713934
    100          6           0       -0.652365   -1.457474    4.250300
    101          1           0        0.136464    3.252940    3.569975
    102          1           0       -1.050726    0.845155    2.415477
    103          1           0        0.387222    0.994413    4.472423
    104          1           0       -2.336437   -0.325455    5.070228
    105          1           0       -0.859118   -0.438681    6.077026
    106          1           0       -0.489658    3.119637    5.526856
    107          1           0       -2.014281    2.291568    5.925733
    108          1           0       -0.459249    1.763816    6.643100
    109          1           0       -0.957043   -2.406161    4.746065
    110          1           0       -1.009026   -1.467447    3.203100
    111          1           0        0.460257   -1.421319    4.266539
    112          7           0       -3.292762    2.650267    2.059665
    113          6           0       -4.686249    3.110963    1.985550
    114          6           0       -5.706598    1.985951    1.891849
    115          8           0       -6.900244    2.268541    1.939747
    116          6           0       -4.876554    4.028093    0.738833
    117          6           0       -4.608978    3.297935   -0.597959
    118          8           0       -4.024831    5.138695    0.841690
    119          1           0       -2.688682    2.893388    1.287075
    120          1           0       -4.894453    3.714928    2.897175
    121          1           0       -5.934238    4.382287    0.746065
    122          1           0       -4.306515    5.782370    0.139823
    123          1           0       -4.865932    3.957768   -1.450915
    124          1           0       -3.549596    2.992771   -0.709405
    125          1           0       -5.222510    2.390012   -0.690728
    126          7           0       -5.319951    0.699437    1.674670
    127          6           0       -6.225990   -0.415179    1.422954
    128          6           0       -6.954459   -0.253305    0.087891
    129          8           0       -6.962894    0.829693   -0.475216
    130          6           0       -7.212534   -0.686291    2.598824
    131          6           0       -6.513500   -0.559836    3.963792
    132          8           0       -7.742796   -1.980539    2.444325
    133          1           0       -4.312994    0.484110    1.635949
    134          1           0       -5.568090   -1.305480    1.321641
    135          1           0       -8.047188    0.052139    2.578503
    136          1           0       -8.272060   -2.201508    3.254019
    137          1           0       -6.221706    0.495564    4.149713
    138          1           0       -7.206557   -0.846880    4.783264
    139          1           0       -5.611277   -1.202386    4.002294
    140          7           0       -7.596997   -1.312001   -0.473589
    141          6           0       -8.425857   -1.191806   -1.665259
    142          6           0       -8.054910   -1.977014   -2.936474
    143          8           0       -8.810782   -1.797166   -3.883288
    144          6           0       -9.867903   -1.552646   -1.250972
    145          6           0      -10.526277   -0.418924   -0.455022
    146          6           0      -11.982407   -0.785400   -0.169144
    147          6           0      -12.714984    0.302847    0.616545
    148          7           0      -14.114380   -0.077030    0.807894
    149          1           0       -7.593406   -2.201561    0.028582
    150          1           0       -8.432005   -0.144879   -2.038642
    151          1           0       -9.870385   -2.502841   -0.666443
    152          1           0      -10.501949   -1.716566   -2.146720
    153          1           0      -10.511741    0.507488   -1.073992
    154          1           0       -9.971549   -0.225094    0.488251
    155          1           0      -12.015684   -1.733719    0.408645
    156          1           0      -12.505274   -0.935779   -1.140272
    157          1           0      -12.669093    1.268212    0.064074
    158          1           0      -12.225366    0.438495    1.606462
    159          1           0      -14.172189   -0.982075    1.329466
    160          1           0      -14.605117    0.665288    1.355077
    161          1           0      -14.585041   -0.180529   -0.121224
    162          7           0       -7.007379   -2.830953   -3.158706
    163          6           0       -5.935080   -3.303044   -2.296516
    164          6           0       -6.439349   -4.022185   -1.072817
    165          8           0       -5.839958   -3.928304   -0.009253
    166          6           0       -4.768195   -2.285766   -2.175907
    167          6           0       -3.406168   -3.007237   -2.271878
    168          6           0       -2.260820   -2.063860   -2.470019
    169          8           0       -1.274823   -1.985001   -1.563784
    170          8           0       -2.173889   -1.422131   -3.505888
    171          1           0       -6.990609   -3.250463   -4.104230
    172          1           0       -5.513910   -4.138242   -2.898018
    173          1           0       -4.847740   -1.649835   -1.266786
    174          1           0       -4.818391   -1.607891   -3.056487
    175          1           0       -3.391296   -3.660394   -3.175193
    176          1           0       -3.254536   -3.645593   -1.378975
    177          7           0       -7.609186   -4.720661   -1.160305
    178          6           0       -8.234063   -5.389630   -0.044589
    179          1           0       -7.610904   -5.366496    0.871265
    180          1           0       -9.206449   -4.894753    0.167037
    181          1           0       -8.430623   -6.443815   -0.328680
    182          1           0       -8.112003   -4.745419   -2.059681
    183         20           0        0.505828   -0.751155   -2.167660
    184          8           0        1.884749   -2.747080   -1.050513
    185          1           0        1.757505   -2.891942   -0.082431
    186          1           0        1.906817   -3.649881   -1.452389
    187          8           0       -1.249202    1.444673   -2.116747
    188          1           0       -0.858463    1.205611   -1.240490
    189          1           0       -0.750797    2.251900   -2.397886
    190          8           0        0.525536    0.583837   -4.645788
    191          1           0        1.257360    0.561844   -5.311263
    192          1           0       -0.260964    0.924620   -5.140132
    193          8           0        0.900926   -2.750353   -4.433099
    194          1           0        0.740946   -2.774342   -5.408890
    195          1           0        1.861283   -2.961924   -4.341310
    196          8           0        1.135050   -0.026716    0.475322
    197          1           0        1.821615    0.498896    0.002013
    198          1           0        1.243261    0.241353    1.418740
 ---------------------------------------------------------------------

 SCF Done:  E(RB3LYP) =  -5794.06903584     A.U. after   65 cycles

 The electronic state is 1-A.
 Alpha  occ. eigenvalues -- -145.34780 -19.15967 -19.14072 -19.13154 -19.13138
 Alpha  occ. eigenvalues --  -19.12928 -19.11637 -19.11518 -19.11448 -19.11118
 Alpha  occ. eigenvalues --  -19.10590 -19.10183 -19.09960 -19.09142 -19.09024
 Alpha  occ. eigenvalues --  -19.08396 -19.08390 -19.07295 -19.06227 -19.04881
 Alpha  occ. eigenvalues --  -19.04704 -19.03954 -19.03181 -19.02180 -19.01536
 Alpha  occ. eigenvalues --  -19.00243 -18.99169 -18.99010 -18.98566 -18.98523
 Alpha  occ. eigenvalues --  -15.40591 -14.58985 -14.49129 -14.38063 -14.37405
 Alpha  occ. eigenvalues --  -14.36962 -14.35634 -14.35426 -14.34779 -14.34297
 Alpha  occ. eigenvalues --  -14.32413 -14.32382 -14.32309 -14.30220 -14.29932
 Alpha  occ. eigenvalues --  -14.29718 -12.54225 -12.54178 -12.54106 -10.36038
 Alpha  occ. eigenvalues --  -10.30744 -10.30369 -10.29519 -10.29313 -10.28576
 Alpha  occ. eigenvalues --  -10.28348 -10.28242 -10.28194 -10.26961 -10.26580
 Alpha  occ. eigenvalues --  -10.26111 -10.25792 -10.25784 -10.25553 -10.25273
 Alpha  occ. eigenvalues --  -10.25139 -10.25009 -10.24780 -10.24159 -10.23996
 Alpha  occ. eigenvalues --  -10.23988 -10.23922 -10.23857 -10.23405 -10.23395
 Alpha  occ. eigenvalues --  -10.23304 -10.22615 -10.22466 -10.21961 -10.20742
 Alpha  occ. eigenvalues --  -10.20685 -10.19960 -10.19769 -10.19286 -10.19283
 Alpha  occ. eigenvalues --  -10.19140 -10.19049 -10.18693 -10.18543 -10.18480
 Alpha  occ. eigenvalues --  -10.18283 -10.18158 -10.18143 -10.17611 -10.17359
 Alpha  occ. eigenvalues --  -10.17109 -10.16945 -10.16355 -10.16309 -10.15831
 Alpha  occ. eigenvalues --  -10.14402 -10.13734 -10.12262  -1.77554  -1.12965
 Alpha  occ. eigenvalues --   -1.05335  -1.05011  -1.04962  -1.04801  -1.04390
 Alpha  occ. eigenvalues --   -1.04249  -1.03637  -1.03433  -1.03344  -1.02959
 Alpha  occ. eigenvalues --   -1.01839  -1.01569  -1.00974  -1.00731  -1.00598
 Alpha  occ. eigenvalues --   -0.99578  -0.99262  -0.98457  -0.97967  -0.97717
 Alpha  occ. eigenvalues --   -0.97593  -0.97031  -0.96971  -0.96830  -0.95712
 Alpha  occ. eigenvalues --   -0.94709  -0.94137  -0.93624  -0.93344  -0.93303
 Alpha  occ. eigenvalues --   -0.92583  -0.92327  -0.91685  -0.91354  -0.90181
 Alpha  occ. eigenvalues --   -0.89766  -0.89251  -0.88824  -0.88296  -0.87541
 Alpha  occ. eigenvalues --   -0.85921  -0.85491  -0.85258  -0.84903  -0.82577
 Alpha  occ. eigenvalues --   -0.81696  -0.81273  -0.81184  -0.80658  -0.79434
 Alpha  occ. eigenvalues --   -0.78481  -0.78006  -0.76802  -0.76036  -0.75537
 Alpha  occ. eigenvalues --   -0.75443  -0.74271  -0.73910  -0.73189  -0.72499
 Alpha  occ. eigenvalues --   -0.72264  -0.72107  -0.71394  -0.70513  -0.70361
 Alpha  occ. eigenvalues --   -0.70026  -0.69943  -0.69582  -0.69545  -0.68713
 Alpha  occ. eigenvalues --   -0.68213  -0.67177  -0.66970  -0.64648  -0.64592
 Alpha  occ. eigenvalues --   -0.62925  -0.62333  -0.62106  -0.61780  -0.61539
 Alpha  occ. eigenvalues --   -0.61357  -0.61344  -0.61292  -0.61253  -0.61118
 Alpha  occ. eigenvalues --   -0.60725  -0.60257  -0.59391  -0.59280  -0.58854
 Alpha  occ. eigenvalues --   -0.57917  -0.57633  -0.57407  -0.57278  -0.57062
 Alpha  occ. eigenvalues --   -0.56129  -0.55741  -0.55469  -0.55107  -0.54951
 Alpha  occ. eigenvalues --   -0.54470  -0.53953  -0.53908  -0.53515  -0.52979
 Alpha  occ. eigenvalues --   -0.52756  -0.52224  -0.52078  -0.51962  -0.51719
 Alpha  occ. eigenvalues --   -0.51493  -0.51209  -0.50743  -0.50566  -0.50401
 Alpha  occ. eigenvalues --   -0.50246  -0.49959  -0.49566  -0.49448  -0.49177
 Alpha  occ. eigenvalues --   -0.49050  -0.48851  -0.48556  -0.48452  -0.48166
 Alpha  occ. eigenvalues --   -0.47651  -0.47524  -0.47266  -0.47057  -0.46895
 Alpha  occ. eigenvalues --   -0.46871  -0.46058  -0.45925  -0.45898  -0.45708
 Alpha  occ. eigenvalues --   -0.45617  -0.45560  -0.45466  -0.45440  -0.45044
 Alpha  occ. eigenvalues --   -0.44710  -0.44659  -0.44589  -0.44521  -0.44181
 Alpha  occ. eigenvalues --   -0.44019  -0.43820  -0.43783  -0.43339  -0.43110
 Alpha  occ. eigenvalues --   -0.43053  -0.42837  -0.42544  -0.42423  -0.42243
 Alpha  occ. eigenvalues --   -0.42054  -0.42007  -0.41971  -0.41815  -0.41691
 Alpha  occ. eigenvalues --   -0.41655  -0.41521  -0.41340  -0.41155  -0.40963
 Alpha  occ. eigenvalues --   -0.40938  -0.40860  -0.40701  -0.40482  -0.40420
 Alpha  occ. eigenvalues --   -0.40150  -0.39996  -0.39867  -0.39791  -0.39756
 Alpha  occ. eigenvalues --   -0.39470  -0.39313  -0.39244  -0.38929  -0.38902
 Alpha  occ. eigenvalues --   -0.38812  -0.38766  -0.38545  -0.38424  -0.38346
 Alpha  occ. eigenvalues --   -0.38179  -0.37991  -0.37821  -0.37739  -0.37640
 Alpha  occ. eigenvalues --   -0.37579  -0.37418  -0.37312  -0.36980  -0.36970
 Alpha  occ. eigenvalues --   -0.36763  -0.36673  -0.36529  -0.36338  -0.36144
 Alpha  occ. eigenvalues --   -0.35923  -0.35617  -0.35581  -0.35525  -0.35453
 Alpha  occ. eigenvalues --   -0.35441  -0.35394  -0.35158  -0.35071  -0.34922
 Alpha  occ. eigenvalues --   -0.34823  -0.34594  -0.34490  -0.34321  -0.34224
 Alpha  occ. eigenvalues --   -0.34160  -0.34095  -0.33514  -0.33152  -0.33020
 Alpha  occ. eigenvalues --   -0.32894  -0.32805  -0.32764  -0.32449  -0.32322
 Alpha  occ. eigenvalues --   -0.32134  -0.32070  -0.31992  -0.31778  -0.31501
 Alpha  occ. eigenvalues --   -0.31215  -0.31022  -0.30862  -0.30598  -0.30447
 Alpha  occ. eigenvalues --   -0.30037  -0.29734  -0.29725  -0.29392  -0.29120
 Alpha  occ. eigenvalues --   -0.29103  -0.28955  -0.28631  -0.28371  -0.28123
 Alpha  occ. eigenvalues --   -0.27780  -0.27743  -0.27666  -0.27598  -0.27375
 Alpha  occ. eigenvalues --   -0.27044  -0.26503  -0.26232  -0.25975  -0.25936
 Alpha  occ. eigenvalues --   -0.25885  -0.25410  -0.25201  -0.25057  -0.24769
 Alpha  occ. eigenvalues --   -0.24272  -0.23963  -0.23825  -0.23472  -0.22779
 Alpha  occ. eigenvalues --   -0.22534  -0.21724  -0.21386  -0.20879  -0.20618
 Alpha  occ. eigenvalues --   -0.20484  -0.20260  -0.20139  -0.19835  -0.19559
 Alpha  occ. eigenvalues --   -0.18220  -0.18204  -0.16989  -0.16855  -0.16582
 Alpha  occ. eigenvalues --   -0.16012  -0.15459  -0.14522  -0.13910  -0.12908
 Alpha virt. eigenvalues --   -0.12351  -0.06382  -0.06182  -0.02880  -0.02446
 Alpha virt. eigenvalues --   -0.01041  -0.00974  -0.00188   0.00217   0.00502
 Alpha virt. eigenvalues --    0.01073   0.01141   0.01797   0.01920   0.02124

 Mulliken charges:
               1
     1  C    0.041832
     2  C    0.005943
     3  O   -0.293961
     4  H    0.026298
     5  H    0.033879
     6  H    0.035128
     7  N   -0.168378
     8  C    0.093694
     9  C    0.127428
    10  O   -0.282677
    11  C    0.096650
    12  C    0.058072
    13  O   -0.375522
    14  O   -0.496409
    15  H    0.115573
    16  H   -0.002949
    17  H   -0.002677
    18  H    0.023952
    19  N   -0.165415
    20  C    0.102842
    21  C    0.111319
    22  O   -0.287923
    23  C    0.047978
    24  C   -0.040280
    25  C   -0.023165
    26  C    0.040826
    27  N    0.036978
    28  H    0.130472
    29  H    0.039060
    30  H    0.015415
    31  H   -0.007775
    32  H    0.022372
    33  H    0.037047
    34  H    0.037841
    35  H    0.003019
    36  H    0.080563
    37  H    0.041235
    38  H    0.196421
    39  H    0.173369
    40  H    0.185083
    41  N   -0.127225
    42  C    0.004234
    43  C    0.102656
    44  O   -0.288206
    45  C    0.083674
    46  C    0.074942
    47  O   -0.514978
    48  O   -0.341393
    49  H    0.129995
    50  H    0.033020
    51  H    0.027136
    52  H    0.012195
    53  N   -0.161798
    54  C    0.145988
    55  C    0.005502
    56  O   -0.274933
    57  H    0.133914
    58  H    0.071689
    59  H    0.068197
    60  N   -0.151802
    61  C    0.125274
    62  C    0.106185
    63  O   -0.326719
    64  C    0.022700
    65  C    0.051466
    66  O   -0.460517
    67  O   -0.298961
    68  H    0.138908
    69  H    0.026225
    70  H    0.002945
    71  H    0.015165
    72  N   -0.155121
    73  C    0.166091
    74  C    0.036494
    75  O   -0.301908
    76  H    0.154048
    77  H    0.064095
    78  H    0.064230
    79  N   -0.155253
    80  C    0.155995
    81  C    0.085736
    82  O   -0.307191
    83  C    0.095209
    84  C    0.016994
    85  O   -0.307528
    86  H    0.135973
    87  H    0.000854
    88  H    0.003192
    89  H    0.183405
    90  H    0.022257
    91  H    0.021077
    92  H    0.022180
    93  N   -0.150039
    94  C    0.132270
    95  C    0.087434
    96  O   -0.263097
    97  C   -0.093219
    98  C    0.005499
    99  C    0.017072
   100  C   -0.018209
   101  H    0.141274
   102  H    0.025692
   103  H    0.016368
   104  H    0.020601
   105  H   -0.004658
   106  H   -0.010488
   107  H    0.038493
   108  H    0.009267
   109  H    0.011154
   110  H    0.026540
   111  H    0.014676
   112  N   -0.185840
   113  C    0.169191
   114  C    0.108598
   115  O   -0.290879
   116  C    0.074133
   117  C   -0.017554
   118  O   -0.301216
   119  H    0.150914
   120  H    0.028288
   121  H    0.009179
   122  H    0.182993
   123  H   -0.001260
   124  H    0.030964
   125  H    0.043214
   126  N   -0.152957
   127  C    0.110634
   128  C    0.092060
   129  O   -0.241231
   130  C    0.088336
   131  C    0.035457
   132  O   -0.309874
   133  H    0.142618
   134  H    0.041346
   135  H   -0.010088
   136  H    0.171755
   137  H    0.050664
   138  H   -0.013019
   139  H    0.023663
   140  N   -0.177227
   141  C    0.105052
   142  C    0.097305
   143  O   -0.282139
   144  C    0.002660
   145  C   -0.003638
   146  C   -0.063937
   147  C    0.026217
   148  N    0.074649
   149  H    0.150344
   150  H    0.055899
   151  H   -0.003939
   152  H    0.019371
   153  H    0.031233
   154  H    0.042371
   155  H    0.018746
   156  H    0.024182
   157  H    0.079270
   158  H    0.079010
   159  H    0.161124
   160  H    0.162830
   161  H    0.164398
   162  N   -0.143018
   163  C    0.080767
   164  C    0.039137
   165  O   -0.249123
   166  C    0.060843
   167  C    0.057730
   168  C    0.153516
   169  O   -0.618308
   170  O   -0.332401
   171  H    0.142896
   172  H    0.016539
   173  H    0.025111
   174  H    0.018597
   175  H    0.003747
   176  H    0.008681
   177  N   -0.190325
   178  C    0.096000
   179  H    0.067148
   180  H    0.004489
   181  H    0.030927
   182  H    0.122143
   183  Ca   1.231083
   184  O   -0.322374
   185  H    0.196636
   186  H    0.198274
   187  O   -0.302821
   188  H    0.179524
   189  H    0.190933
   190  O   -0.297541
   191  H    0.194097
   192  H    0.190784
   193  O   -0.319933
   194  H    0.170386
   195  H    0.178096
   196  O   -0.348790
   197  H    0.199968
   198  H    0.216622
 Sum of Mulliken charges =  -0.00000

 Dipole moment (field-independent basis, Debye):
    X=            -54.5549    Y=            -13.4668    Z=             22.4322  Tot=             60.5046
 Quadrupole moment (field-independent basis, Debye-Ang):
   XX=            107.7778   YY=           -680.2348   ZZ=           -597.5234
   XY=              3.3207   XZ=             98.6138   YZ=             13.1001

 ESP charges:
               1
     1  C   -0.450500
     2  C    0.794496
     3  O   -0.628562
     4  H    0.109761
     5  H    0.107858
     6  H    0.130641
     7  N   -0.739271
     8  C    0.347435
     9  C    0.291037
    10  O   -0.521070
    11  C   -0.205399
    12  C    0.787478
    13  O   -0.724134
    14  O   -0.729618
    15  H    0.325482
    16  H    0.030574
    17  H    0.051832
    18  H   -0.000351
    19  N   -0.429171
    20  C    0.037543
    21  C    0.686525
    22  O   -0.573149
    23  C   -0.362248
    24  C    0.262263
    25  C   -0.164505
    26  C    0.039318
    27  N   -0.298691
    28  H    0.331545
    29  H    0.171887
    30  H    0.112386
    31  H    0.080175
    32  H    0.010700
    33  H    0.002861
    34  H    0.066526
    35  H    0.045663
    36  H    0.097213
    37  H    0.038617
    38  H    0.317055
    39  H    0.221257
    40  H    0.324483
    41  N   -0.761073
    42  C    0.480506
    43  C    0.444466
    44  O   -0.556901
    45  C   -0.570399
    46  C    0.898822
    47  O   -0.881130
    48  O   -0.692229
    49  H    0.365173
    50  H    0.009652
    51  H    0.188241
    52  H    0.156292
    53  N   -0.520551
    54  C    0.066109
    55  C    0.595245
    56  O   -0.555928
    57  H    0.318370
    58  H    0.066787
    59  H    0.056960
    60  N   -0.674319
    61  C    0.273004
    62  C    0.593345
    63  O   -0.651015
    64  C   -0.340742
    65  C    0.751593
    66  O   -0.717586
    67  O   -0.625891
    68  H    0.359637
    69  H    0.067249
    70  H    0.041690
    71  H    0.089727
    72  N   -0.447659
    73  C   -0.146088
    74  C    0.543393
    75  O   -0.495993
    76  H    0.320937
    77  H    0.144871
    78  H    0.149765
    79  N   -0.268269
    80  C   -0.360836
    81  C    0.545203
    82  O   -0.567923
    83  C    0.535113
    84  C   -0.425973
    85  O   -0.655409
    86  H    0.224112
    87  H    0.145160
    88  H    0.031969
    89  H    0.419795
    90  H    0.120320
    91  H    0.101316
    92  H    0.108323
    93  N   -0.541025
    94  C   -0.018071
    95  C    0.574283
    96  O   -0.534581
    97  C    0.238884
    98  C    0.016818
    99  C   -0.417846
   100  C   -0.213105
   101  H    0.305876
   102  H    0.062676
   103  H    0.025710
   104  H   -0.002558
   105  H    0.018929
   106  H    0.099037
   107  H    0.114419
   108  H    0.085834
   109  H    0.058373
   110  H    0.051536
   111  H    0.049705
   112  N   -0.272100
   113  C   -0.070596
   114  C    0.498188
   115  O   -0.560100
   116  C    0.279902
   117  C   -0.166963
   118  O   -0.624698
   119  H    0.236120
   120  H    0.118544
   121  H    0.026042
   122  H    0.398163
   123  H    0.046167
   124  H    0.026639
   125  H    0.059560
   126  N   -0.641459
   127  C    0.696017
   128  C    0.370525
   129  O   -0.471245
   130  C    0.159057
   131  C   -0.368615
   132  O   -0.682191
   133  H    0.273590
   134  H   -0.042445
   135  H    0.049790
   136  H    0.420031
   137  H    0.126009
   138  H    0.078553
   139  H    0.109710
   140  N   -0.582214
   141  C    0.286156
   142  C    0.483670
   143  O   -0.554310
   144  C   -0.325178
   145  C    0.138060
   146  C   -0.097240
   147  C    0.118403
   148  N   -0.330537
   149  H    0.311668
   150  H    0.082037
   151  H    0.099721
   152  H    0.082385
   153  H    0.030800
   154  H   -0.020003
   155  H    0.037475
   156  H    0.042333
   157  H    0.056918
   158  H    0.063736
   159  H    0.272056
   160  H    0.279580
   161  H    0.280075
   162  N   -0.496911
   163  C    0.112624
   164  C    0.372045
   165  O   -0.476409
   166  C    0.204034
   167  C   -0.311457
   168  C    0.834945
   169  O   -0.917475
   170  O   -0.662786
   171  H    0.313796
   172  H    0.038022
   173  H   -0.039092
   174  H   -0.012301
   175  H    0.066383
   176  H    0.067440
   177  N   -0.306888
   178  C   -0.010778
   179  H    0.087387
   180  H    0.010365
   181  H    0.047629
   182  H    0.234440
   183  Ca   1.675258
   184  O   -0.843289
   185  H    0.401756
   186  H    0.437700
   187  O   -0.702864
   188  H    0.333748
   189  H    0.425616
   190  O   -0.836449
   191  H    0.402238
   192  H    0.425812
   193  O   -0.791506
   194  H    0.399458
   195  H    0.376563
   196  O   -0.684637
   197  H    0.337673
   198  H    0.392047
 Sum of ESP charges =   0.00000

 Normal termination of Gaussian 16 at Thu Feb 20 21:42:53 2020.
