 Gaussian 16, Revision A.03,
 Gaussian 16:  ES64L-G16RevA.03 25-Dec-2016

 ----------------------------------------------------------------------
 #b3lyp/svp scf=(tight,noincore) Test #IOP(5/87=12) Density=Current Pop
 =(MK,readradii) iop(6/33=2) iop(6/42=6)
 ----------------------------------------------------------------------

 --------------
 loop1.cluster0
 --------------
 Symbolic Z-matrix:
 Charge =  0 Multiplicity = 1

                         Standard orientation:
 ---------------------------------------------------------------------
 Center     Atomic      Atomic             Coordinates (Angstroms)
 Number     Number       Type             X           Y           Z
 ---------------------------------------------------------------------
      1          6           0        0.403814    2.809780    4.905586
      2          6           0       -0.241143    2.546134    3.578714
      3          8           0        0.327077    2.879659    2.552890
      4          1           0        1.434740    3.200361    4.782568
      5          1           0       -0.204267    3.556521    5.460196
      6          1           0        0.438169    1.868712    5.494878
      7          7           0       -1.450121    1.928396    3.545134
      8          6           0       -2.217431    1.639165    2.334562
      9          6           0       -3.036874    2.868901    1.963043
     10          8           0       -4.256591    2.862023    2.069364
     11          6           0       -3.046090    0.367530    2.629121
     12          6           0       -4.104541   -0.001498    1.639249
     13          8           0       -5.257160   -0.091614    2.022499
     14          8           0       -3.837123   -0.254412    0.353417
     15          1           0       -1.847619    1.630515    4.449587
     16          1           0       -1.552136    1.387096    1.478205
     17          1           0       -3.578073    0.510913    3.592948
     18          1           0       -2.343871   -0.486848    2.742443
     19          7           0       -2.399190    3.976831    1.501391
     20          6           0       -3.066179    5.209087    1.106577
     21          6           0       -4.013820    4.954485   -0.055098
     22          8           0       -5.156700    5.376165    0.012969
     23          6           0       -1.995557    6.269434    0.749641
     24          6           0       -1.207206    6.675439    2.014654
     25          6           0       -0.029079    7.603270    1.694555
     26          6           0        0.610408    8.182700    2.970616
     27          7           0        1.353915    7.184964    3.744333
     28          1           0       -1.378227    3.933597    1.396266
     29          1           0       -3.657325    5.623188    1.956166
     30          1           0       -2.477089    7.186700    0.342141
     31          1           0       -1.311353    5.862032   -0.026813
     32          1           0       -0.818547    5.784174    2.544909
     33          1           0       -1.915623    7.199801    2.694918
     34          1           0       -0.414036    8.455718    1.097038
     35          1           0        0.735283    7.067034    1.087516
     36          1           0       -0.185273    8.640134    3.600405
     37          1           0        1.314503    8.991525    2.678170
     38          1           0        1.701746    7.634437    4.622474
     39          1           0        0.755586    6.372022    4.009395
     40          1           0        2.178583    6.854341    3.192423
     41          7           0       -3.594830    4.267661   -1.158372
     42          6           0       -4.480868    4.042356   -2.309405
     43          6           0       -5.604878    3.035250   -2.051696
     44          8           0       -6.553311    3.022194   -2.829533
     45          6           0       -3.666293    3.762109   -3.586916
     46          6           0       -2.721062    2.610825   -3.491426
     47          8           0       -1.806907    2.514861   -4.292976
     48          8           0       -2.844566    1.708404   -2.509301
     49          1           0       -2.619447    3.941656   -1.193676
     50          1           0       -4.981503    5.013423   -2.517819
     51          1           0       -3.049538    4.668349   -3.765299
     52          1           0       -4.324924    3.617263   -4.470197
     53          7           0       -5.636426    2.238276   -0.943691
     54          6           0       -6.852702    1.546112   -0.529485
     55          6           0       -7.211691    0.290415   -1.307543
     56          8           0       -8.165702    0.292367   -2.065476
     57          1           0       -4.836578    2.253148   -0.293818
     58          1           0       -7.692039    2.270244   -0.557983
     59          1           0       -6.757085    1.245642    0.532998
     60          7           0       -6.527184   -0.853443   -1.057969
     61          6           0       -6.819344   -2.164148   -1.614592
     62          6           0       -6.646294   -3.288886   -0.565505
     63          8           0       -6.741373   -4.450844   -0.946851
     64          6           0       -5.922726   -2.385612   -2.855307
     65          6           0       -4.483461   -1.972580   -2.670422
     66          8           0       -3.794822   -2.354751   -1.592227
     67          8           0       -3.957163   -1.219433   -3.472110
     68          1           0       -5.750868   -0.802129   -0.426177
     69          1           0       -7.870041   -2.227891   -1.968839
     70          1           0       -6.319997   -1.765458   -3.687623
     71          1           0       -5.997860   -3.446426   -3.177645
     72          7           0       -6.434112   -3.042709    0.768567
     73          6           0       -6.243563   -4.111009    1.742658
     74          6           0       -4.910635   -4.825112    1.602029
     75          8           0       -4.749293   -5.889121    2.179041
     76          1           0       -6.446186   -2.080692    1.127460
     77          1           0       -7.092334   -4.825953    1.680052
     78          1           0       -6.246156   -3.688923    2.772630
     79          7           0       -3.884840   -4.253630    0.906989
     80          6           0       -2.534053   -4.810485    0.870488
     81          6           0       -1.480774   -3.727332    1.092007
     82          8           0       -1.659869   -2.595268    0.669896
     83          6           0       -2.222698   -5.627614   -0.432673
     84          6           0       -2.125388   -7.115824   -0.130134
     85          8           0       -3.201409   -5.494757   -1.429241
     86          1           0       -4.036473   -3.333814    0.487619
     87          1           0       -2.406262   -5.483625    1.745185
     88          1           0       -1.221828   -5.346413   -0.835859
     89          1           0       -3.302116   -4.541569   -1.624432
     90          1           0       -1.355117   -7.303156    0.646901
     91          1           0       -3.111540   -7.489405    0.216197
     92          1           0       -1.834308   -7.660048   -1.054640
     93          7           0       -0.302180   -4.067207    1.688974
     94          6           0        0.827280   -3.160655    1.874554
     95          6           0        1.971187   -3.681696    1.004982
     96          8           0        2.361501   -4.831276    1.152499
     97          6           0        1.223334   -3.119389    3.386133
     98          6           0        0.097057   -2.478017    4.243886
     99          6           0        2.566490   -2.391260    3.599353
    100          6           0        0.365414   -2.577537    5.750961
    101          1           0       -0.180331   -5.042252    1.999773
    102          1           0        0.578585   -2.123600    1.559309
    103          1           0        1.361752   -4.168994    3.726383
    104          1           0       -0.853534   -3.017789    4.049966
    105          1           0       -0.053958   -1.408629    3.970189
    106          1           0        2.511777   -1.336319    3.259961
    107          1           0        2.877120   -2.420621    4.662162
    108          1           0        3.374824   -2.910546    3.046904
    109          1           0        1.224780   -1.946341    6.056595
    110          1           0       -0.521870   -2.227170    6.318748
    111          1           0        0.568215   -3.632967    6.032684
    112          7           0        2.578873   -2.859938    0.099054
    113          6           0        3.716244   -3.252228   -0.722645
    114          6           0        4.994816   -2.836458   -0.021072
    115          8           0        4.927433   -2.235265    1.037424
    116          6           0        3.652385   -2.565928   -2.125483
    117          6           0        2.343401   -2.857837   -2.866928
    118          8           0        3.842823   -1.178191   -1.985267
    119          1           0        2.317617   -1.880037    0.085934
    120          1           0        3.724405   -4.355024   -0.854480
    121          1           0        4.483537   -2.958816   -2.747094
    122          1           0        3.289414   -0.677696   -2.640051
    123          1           0        2.394116   -2.431989   -3.893843
    124          1           0        2.162653   -3.947703   -2.939747
    125          1           0        1.511673   -2.352537   -2.338314
    126          7           0        6.209541   -3.115275   -0.560904
    127          6           0        7.450580   -2.617073    0.028823
    128          6           0        7.502279   -1.088912   -0.026757
    129          8           0        7.984752   -0.473917    0.914005
    130          6           0        8.691373   -3.235786   -0.661793
    131          6           0        8.784081   -4.750652   -0.365051
    132          8           0        8.659536   -2.962809   -2.045642
    133          1           0        6.249486   -3.674140   -1.426396
    134          1           0        7.506995   -2.922338    1.098726
    135          1           0        9.602315   -2.772083   -0.223431
    136          1           0        9.055672   -3.726004   -2.542337
    137          1           0        8.784575   -4.931264    0.731963
    138          1           0        7.938943   -5.308348   -0.819398
    139          1           0        9.736053   -5.157101   -0.769537
    140          7           0        7.037820   -0.416456   -1.120056
    141          6           0        7.084585    1.041653   -1.248991
    142          6           0        6.181790    1.732785   -0.234727
    143          8           0        6.597448    2.700915    0.384708
    144          6           0        6.753198    1.439801   -2.711496
    145          6           0        7.093160    2.915131   -3.003917
    146          6           0        7.321710    3.207584   -4.500963
    147          6           0        6.070927    3.313868   -5.383382
    148          7           0        5.213565    4.426973   -4.968092
    149          1           0        6.656875   -0.965748   -1.905414
    150          1           0        8.134759    1.367684   -1.078019
    151          1           0        5.709356    1.188954   -3.002702
    152          1           0        7.438613    0.824232   -3.334650
    153          1           0        8.077755    3.119441   -2.533623
    154          1           0        6.357807    3.609125   -2.542680
    155          1           0        8.006379    2.436574   -4.920529
    156          1           0        7.853919    4.179679   -4.581576
    157          1           0        5.493382    2.364381   -5.402401
    158          1           0        6.430116    3.512852   -6.419492
    159          1           0        4.659849    4.156705   -4.124707
    160          1           0        5.786011    5.277613   -4.756669
    161          1           0        4.554593    4.663673   -5.744457
    162          7           0        4.935127    1.248702    0.004303
    163          6           0        4.020137    1.808177    0.997599
    164          6           0        4.652325    1.719470    2.370537
    165          8           0        4.745886    2.727976    3.056759
    166          6           0        2.671330    1.064972    0.931803
    167          6           0        2.020889    1.327802   -0.442896
    168          6           0        0.728058    0.634883   -0.611083
    169          8           0        0.640071   -0.567870   -0.473488
    170          8           0       -0.359096    1.311083   -0.949650
    171          1           0        4.647627    0.411461   -0.507555
    172          1           0        3.803979    2.875161    0.768072
    173          1           0        1.997822    1.420075    1.731178
    174          1           0        2.828816   -0.018494    1.105482
    175          1           0        2.669905    0.974930   -1.255938
    176          1           0        1.853992    2.415984   -0.584070
    177          7           0        5.170359    0.542218    2.806764
    178          6           0        5.911295    0.425286    4.040206
    179          1           0        6.837051    1.037769    3.975498
    180          1           0        5.293543    0.755869    4.898812
    181          1           0        6.210402   -0.634426    4.192710
    182          1           0        5.081268   -0.286996    2.217160
    183         20           0       -2.022602   -0.067479   -0.779167
    184          8           0       -0.742901   -0.317248   -3.788505
    185          1           0       -0.224218   -0.486500   -4.613553
    186          1           0       -0.479908    0.597618   -3.522799
    187          8           0       -0.981598   -3.022669   -2.453896
    188          1           0       -1.230073   -3.210175   -3.393094
    189          1           0       -0.276285   -3.686137   -2.252315
 ---------------------------------------------------------------------

 SCF Done:  E(RB3LYP) =  -5564.95797055     A.U. after   68 cycles

 The electronic state is 1-A.
 Alpha  occ. eigenvalues -- -145.27846 -19.18268 -19.18139 -19.12943 -19.12746
 Alpha  occ. eigenvalues --  -19.11847 -19.11124 -19.09303 -19.08738 -19.08529
 Alpha  occ. eigenvalues --  -19.08157 -19.07819 -19.06963 -19.05788 -19.05743
 Alpha  occ. eigenvalues --  -19.05222 -19.05047 -19.02269 -19.02241 -19.02086
 Alpha  occ. eigenvalues --  -19.01246 -19.00206 -18.99037 -18.99027 -18.98359
 Alpha  occ. eigenvalues --  -18.98343 -18.97655 -15.34011 -14.58931 -14.57847
 Alpha  occ. eigenvalues --  -14.38865 -14.38287 -14.38156 -14.36616 -14.35667
 Alpha  occ. eigenvalues --  -14.34436 -14.34051 -14.33347 -14.31284 -14.27782
 Alpha  occ. eigenvalues --  -14.27629 -14.26094 -14.24410 -12.47625 -12.47588
 Alpha  occ. eigenvalues --  -12.47434 -10.36109 -10.35868 -10.31596 -10.30995
 Alpha  occ. eigenvalues --  -10.30731 -10.29955 -10.29698 -10.29022 -10.28614
 Alpha  occ. eigenvalues --  -10.28106 -10.27699 -10.27437 -10.27306 -10.27238
 Alpha  occ. eigenvalues --  -10.27203 -10.26709 -10.26329 -10.26124 -10.26095
 Alpha  occ. eigenvalues --  -10.25484 -10.25449 -10.24878 -10.24647 -10.24064
 Alpha  occ. eigenvalues --  -10.24055 -10.23702 -10.23554 -10.22862 -10.22494
 Alpha  occ. eigenvalues --  -10.21791 -10.21646 -10.21324 -10.20315 -10.20094
 Alpha  occ. eigenvalues --  -10.19894 -10.19435 -10.18915 -10.18757 -10.18329
 Alpha  occ. eigenvalues --  -10.18110 -10.18019 -10.17968 -10.17858 -10.17770
 Alpha  occ. eigenvalues --  -10.17580 -10.17186 -10.17146 -10.17138 -10.16824
 Alpha  occ. eigenvalues --  -10.14932 -10.13324 -10.12742 -10.12501 -10.09292
 Alpha  occ. eigenvalues --   -1.71859  -1.12675  -1.11934  -1.06620  -1.06093
 Alpha  occ. eigenvalues --   -1.05762  -1.05283  -1.04873  -1.03996  -1.03282
 Alpha  occ. eigenvalues --   -1.02494  -1.01795  -1.01422  -1.00072  -0.99915
 Alpha  occ. eigenvalues --   -0.99300  -0.99183  -0.98951  -0.96149  -0.95558
 Alpha  occ. eigenvalues --   -0.94902  -0.94084  -0.94009  -0.93933  -0.93431
 Alpha  occ. eigenvalues --   -0.93243  -0.92574  -0.92567  -0.92234  -0.92035
 Alpha  occ. eigenvalues --   -0.91998  -0.91917  -0.90821  -0.90345  -0.89543
 Alpha  occ. eigenvalues --   -0.89314  -0.89249  -0.89074  -0.88848  -0.86477
 Alpha  occ. eigenvalues --   -0.85199  -0.84051  -0.83570  -0.82748  -0.82235
 Alpha  occ. eigenvalues --   -0.81516  -0.81148  -0.80942  -0.80399  -0.80344
 Alpha  occ. eigenvalues --   -0.79799  -0.79373  -0.79325  -0.78379  -0.77660
 Alpha  occ. eigenvalues --   -0.76425  -0.74610  -0.74515  -0.73421  -0.73271
 Alpha  occ. eigenvalues --   -0.72345  -0.72043  -0.71691  -0.71463  -0.71030
 Alpha  occ. eigenvalues --   -0.70800  -0.70412  -0.69239  -0.68765  -0.68189
 Alpha  occ. eigenvalues --   -0.68117  -0.67914  -0.66394  -0.66205  -0.65929
 Alpha  occ. eigenvalues --   -0.64853  -0.64112  -0.63602  -0.63424  -0.62974
 Alpha  occ. eigenvalues --   -0.62886  -0.62340  -0.61892  -0.61554  -0.61257
 Alpha  occ. eigenvalues --   -0.61167  -0.60293  -0.59916  -0.59450  -0.58704
 Alpha  occ. eigenvalues --   -0.58585  -0.56731  -0.56698  -0.56608  -0.56042
 Alpha  occ. eigenvalues --   -0.55782  -0.55482  -0.55032  -0.54820  -0.54718
 Alpha  occ. eigenvalues --   -0.54658  -0.54134  -0.54003  -0.53422  -0.53412
 Alpha  occ. eigenvalues --   -0.53004  -0.52567  -0.52485  -0.52325  -0.51654
 Alpha  occ. eigenvalues --   -0.51208  -0.50885  -0.50572  -0.50369  -0.50120
 Alpha  occ. eigenvalues --   -0.50102  -0.49874  -0.49557  -0.49438  -0.49250
 Alpha  occ. eigenvalues --   -0.48981  -0.48673  -0.48404  -0.48344  -0.48186
 Alpha  occ. eigenvalues --   -0.48068  -0.47954  -0.47428  -0.46978  -0.46917
 Alpha  occ. eigenvalues --   -0.46423  -0.46220  -0.46107  -0.46032  -0.45876
 Alpha  occ. eigenvalues --   -0.45648  -0.45412  -0.45278  -0.45223  -0.45203
 Alpha  occ. eigenvalues --   -0.44684  -0.44656  -0.44487  -0.44409  -0.44254
 Alpha  occ. eigenvalues --   -0.43930  -0.43896  -0.43548  -0.43258  -0.43208
 Alpha  occ. eigenvalues --   -0.43048  -0.42762  -0.42687  -0.42514  -0.42375
 Alpha  occ. eigenvalues --   -0.42266  -0.42043  -0.41949  -0.41796  -0.41712
 Alpha  occ. eigenvalues --   -0.41570  -0.41381  -0.41216  -0.41063  -0.40978
 Alpha  occ. eigenvalues --   -0.40820  -0.40781  -0.40697  -0.40212  -0.40035
 Alpha  occ. eigenvalues --   -0.39887  -0.39842  -0.39694  -0.39347  -0.39200
 Alpha  occ. eigenvalues --   -0.39118  -0.38926  -0.38860  -0.38730  -0.38628
 Alpha  occ. eigenvalues --   -0.38418  -0.38312  -0.38206  -0.37993  -0.37969
 Alpha  occ. eigenvalues --   -0.37588  -0.37456  -0.37377  -0.37223  -0.36985
 Alpha  occ. eigenvalues --   -0.36906  -0.36863  -0.36500  -0.36096  -0.36049
 Alpha  occ. eigenvalues --   -0.35757  -0.35718  -0.35505  -0.35354  -0.35211
 Alpha  occ. eigenvalues --   -0.35116  -0.34854  -0.34601  -0.34305  -0.34255
 Alpha  occ. eigenvalues --   -0.33976  -0.33420  -0.33343  -0.33020  -0.32928
 Alpha  occ. eigenvalues --   -0.32407  -0.32264  -0.32088  -0.32058  -0.31926
 Alpha  occ. eigenvalues --   -0.31862  -0.31742  -0.31591  -0.31420  -0.31321
 Alpha  occ. eigenvalues --   -0.31281  -0.30977  -0.30938  -0.30467  -0.30316
 Alpha  occ. eigenvalues --   -0.29756  -0.29665  -0.29561  -0.29342  -0.28931
 Alpha  occ. eigenvalues --   -0.28688  -0.28486  -0.28311  -0.28109  -0.28089
 Alpha  occ. eigenvalues --   -0.26925  -0.26876  -0.26795  -0.26502  -0.26398
 Alpha  occ. eigenvalues --   -0.26209  -0.26174  -0.25837  -0.25766  -0.25284
 Alpha  occ. eigenvalues --   -0.25029  -0.24532  -0.24430  -0.24365  -0.24041
 Alpha  occ. eigenvalues --   -0.23951  -0.23101  -0.22487  -0.22406  -0.22220
 Alpha  occ. eigenvalues --   -0.22175  -0.21544  -0.21069  -0.20239  -0.19920
 Alpha  occ. eigenvalues --   -0.19888  -0.18623  -0.18276  -0.17693  -0.17382
 Alpha  occ. eigenvalues --   -0.16990  -0.16149  -0.15884  -0.15471  -0.15302
 Alpha  occ. eigenvalues --   -0.14914  -0.14584  -0.14064  -0.12817  -0.12302
 Alpha virt. eigenvalues --   -0.11391  -0.11330  -0.05874  -0.05701  -0.05605
 Alpha virt. eigenvalues --   -0.05296  -0.02872  -0.02162  -0.01640  -0.01550
 Alpha virt. eigenvalues --   -0.01040  -0.00856  -0.00399  -0.00080   0.00449

 Mulliken charges:
               1
     1  C    0.012446
     2  C    0.048709
     3  O   -0.301892
     4  H    0.036111
     5  H    0.020957
     6  H    0.058626
     7  N   -0.147579
     8  C    0.043650
     9  C    0.090489
    10  O   -0.224284
    11  C    0.074839
    12  C    0.172239
    13  O   -0.300965
    14  O   -0.615421
    15  H    0.133308
    16  H    0.013531
    17  H    0.000142
    18  H    0.038135
    19  N   -0.168653
    20  C    0.140223
    21  C    0.076098
    22  O   -0.242533
    23  C    0.004215
    24  C   -0.041735
    25  C   -0.015651
    26  C    0.010463
    27  N    0.036957
    28  H    0.135327
    29  H    0.005940
    30  H    0.036540
    31  H    0.017131
    32  H   -0.014523
    33  H    0.020138
    34  H    0.053489
    35  H    0.035109
    36  H    0.077294
    37  H    0.070037
    38  H    0.188447
    39  H    0.198111
    40  H    0.204200
    41  N   -0.186868
    42  C    0.138350
    43  C    0.122846
    44  O   -0.282612
    45  C    0.062145
    46  C    0.129673
    47  O   -0.351061
    48  O   -0.510806
    49  H    0.119726
    50  H    0.004850
    51  H   -0.031421
    52  H    0.046216
    53  N   -0.170382
    54  C    0.209854
    55  C    0.054878
    56  O   -0.276394
    57  H    0.136553
    58  H   -0.001404
    59  H    0.020790
    60  N   -0.191947
    61  C    0.117089
    62  C    0.079657
    63  O   -0.283766
    64  C    0.097393
    65  C    0.110490
    66  O   -0.462913
    67  O   -0.241306
    68  H    0.166052
    69  H    0.024070
    70  H    0.010155
    71  H    0.015359
    72  N   -0.204450
    73  C    0.205760
    74  C    0.054904
    75  O   -0.304312
    76  H    0.131934
    77  H    0.030574
    78  H    0.021952
    79  N   -0.161642
    80  C    0.125016
    81  C    0.089600
    82  O   -0.283564
    83  C    0.168023
    84  C    0.024750
    85  O   -0.300711
    86  H    0.163336
    87  H   -0.005693
    88  H   -0.055536
    89  H    0.173703
    90  H   -0.024136
    91  H    0.043466
    92  H   -0.000254
    93  N   -0.172617
    94  C    0.169628
    95  C    0.087537
    96  O   -0.291630
    97  C   -0.104625
    98  C    0.007138
    99  C    0.021627
   100  C    0.006344
   101  H    0.134248
   102  H    0.013521
   103  H   -0.006042
   104  H    0.021042
   105  H   -0.012580
   106  H    0.000852
   107  H    0.001626
   108  H    0.038876
   109  H    0.004937
   110  H    0.008433
   111  H    0.015727
   112  N   -0.160388
   113  C    0.134495
   114  C    0.110684
   115  O   -0.259999
   116  C    0.073977
   117  C   -0.013373
   118  O   -0.322747
   119  H    0.149910
   120  H    0.037000
   121  H   -0.029041
   122  H    0.204414
   123  H    0.004905
   124  H    0.022956
   125  H    0.087522
   126  N   -0.177709
   127  C    0.159390
   128  C    0.090638
   129  O   -0.251503
   130  C    0.067180
   131  C    0.018873
   132  O   -0.317684
   133  H    0.122792
   134  H    0.030856
   135  H    0.016332
   136  H    0.184477
   137  H    0.037511
   138  H    0.016650
   139  H    0.027800
   140  N   -0.168124
   141  C    0.139944
   142  C    0.079817
   143  O   -0.258825
   144  C   -0.013313
   145  C   -0.006723
   146  C   -0.039343
   147  C    0.017200
   148  N    0.072357
   149  H    0.122708
   150  H    0.022398
   151  H   -0.004258
   152  H    0.016525
   153  H    0.040275
   154  H    0.004688
   155  H    0.053117
   156  H    0.023638
   157  H    0.081683
   158  H    0.069335
   159  H    0.162703
   160  H    0.145192
   161  H    0.155315
   162  N   -0.187490
   163  C    0.148020
   164  C    0.081764
   165  O   -0.287469
   166  C   -0.054587
   167  C    0.147741
   168  C    0.104160
   169  O   -0.321026
   170  O   -0.553339
   171  H    0.142334
   172  H   -0.026161
   173  H    0.035332
   174  H    0.017770
   175  H   -0.063998
   176  H   -0.016175
   177  N   -0.191415
   178  C    0.128683
   179  H    0.033539
   180  H    0.013539
   181  H    0.021799
   182  H    0.145546
   183  Ca   1.339719
   184  O   -0.281359
   185  H    0.128140
   186  H    0.159217
   187  O   -0.251641
   188  H    0.167093
   189  H    0.146346
 Sum of Mulliken charges =  -0.00000

 Dipole moment (field-independent basis, Debye):
    X=             59.1781    Y=             35.6976    Z=              4.0243  Tot=             69.2283
 Quadrupole moment (field-independent basis, Debye-Ang):
   XX=           -700.9284   YY=           -391.1265   ZZ=           -462.6833
   XY=             29.2915   XZ=           -200.3911   YZ=             55.6318

 ESP charges:
               1
     1  C   -0.408367
     2  C    0.790252
     3  O   -0.622422
     4  H    0.102401
     5  H    0.082296
     6  H    0.129873
     7  N   -0.759169
     8  C    0.475893
     9  C    0.480641
    10  O   -0.458898
    11  C   -0.280972
    12  C    0.803000
    13  O   -0.621792
    14  O   -0.888556
    15  H    0.351820
    16  H   -0.062601
    17  H    0.054413
    18  H    0.040487
    19  N   -0.599093
    20  C    0.173192
    21  C    0.479557
    22  O   -0.546129
    23  C   -0.404205
    24  C    0.413239
    25  C   -0.191750
    26  C    0.062510
    27  N   -0.399807
    28  H    0.335120
    29  H    0.070402
    30  H    0.122670
    31  H    0.098677
    32  H   -0.121132
    33  H   -0.043007
    34  H    0.071300
    35  H    0.068111
    36  H    0.073381
    37  H    0.071917
    38  H    0.317403
    39  H    0.321844
    40  H    0.343820
    41  N   -0.361600
    42  C    0.081857
    43  C    0.345439
    44  O   -0.512475
    45  C   -0.389417
    46  C    0.936382
    47  O   -0.727599
    48  O   -0.797840
    49  H    0.239076
    50  H    0.087714
    51  H    0.044121
    52  H    0.139156
    53  N    0.285788
    54  C   -0.686322
    55  C    0.916499
    56  O   -0.594901
    57  H    0.026937
    58  H    0.162554
    59  H    0.220491
    60  N   -0.713247
    61  C    0.184081
    62  C    0.360444
    63  O   -0.476408
    64  C   -0.217626
    65  C    0.620712
    66  O   -0.399452
    67  O   -0.563807
    68  H    0.235604
    69  H    0.067792
    70  H    0.095597
    71  H    0.039733
    72  N   -0.252233
    73  C   -0.277154
    74  C    0.704348
    75  O   -0.606905
    76  H    0.273515
    77  H    0.132795
    78  H    0.118096
    79  N   -0.559265
    80  C    0.153670
    81  C    0.545680
    82  O   -0.522710
    83  C    0.526604
    84  C   -0.439119
    85  O   -0.559611
    86  H    0.292454
    87  H    0.018660
    88  H   -0.089793
    89  H    0.276705
    90  H    0.058200
    91  H    0.147364
    92  H    0.093875
    93  N   -0.697646
    94  C    0.183231
    95  C    0.527551
    96  O   -0.570524
    97  C    0.115352
    98  C    0.168673
    99  C   -0.144443
   100  C   -0.345824
   101  H    0.326595
   102  H    0.015249
   103  H   -0.008311
   104  H    0.003885
   105  H   -0.021017
   106  H   -0.028931
   107  H    0.043154
   108  H    0.026935
   109  H    0.068916
   110  H    0.074508
   111  H    0.082163
   112  N   -0.128588
   113  C   -0.237180
   114  C    0.467286
   115  O   -0.397922
   116  C    0.235722
   117  C   -0.353524
   118  O   -0.565386
   119  H    0.331163
   120  H    0.127769
   121  H    0.020715
   122  H    0.412583
   123  H    0.087419
   124  H    0.125905
   125  H    0.055433
   126  N   -0.280282
   127  C   -0.295198
   128  C    0.503301
   129  O   -0.508138
   130  C    0.393246
   131  C   -0.364951
   132  O   -0.668655
   133  H    0.253094
   134  H    0.154088
   135  H    0.033831
   136  H    0.421432
   137  H    0.122704
   138  H    0.094097
   139  H    0.086751
   140  N   -0.035374
   141  C   -0.520393
   142  C    0.554966
   143  O   -0.504466
   144  C    0.048876
   145  C    0.082277
   146  C   -0.187391
   147  C    0.078991
   148  N   -0.248419
   149  H    0.175596
   150  H    0.212395
   151  H    0.003435
   152  H    0.046698
   153  H    0.041426
   154  H   -0.022245
   155  H    0.090539
   156  H    0.060293
   157  H    0.062263
   158  H    0.064731
   159  H    0.266308
   160  H    0.249418
   161  H    0.251260
   162  N   -0.028211
   163  C   -0.583919
   164  C    0.616049
   165  O   -0.566949
   166  C    0.175150
   167  C   -0.212676
   168  C    0.790510
   169  O   -0.659218
   170  O   -0.859958
   171  H    0.101418
   172  H    0.186565
   173  H    0.117343
   174  H   -0.175864
   175  H    0.028542
   176  H    0.066961
   177  N   -0.088049
   178  C   -0.299939
   179  H    0.127374
   180  H    0.087791
   181  H    0.110983
   182  H    0.173908
   183  Ca   1.583887
   184  O   -0.615174
   185  H    0.322911
   186  H    0.314920
   187  O   -0.809896
   188  H    0.406907
   189  H    0.360439
 Sum of ESP charges =   0.00000

 Normal termination of Gaussian 16 at Thu Feb 20 21:43:45 2020.
